Title="tecplot dataformat266"
Variables="x","u"
Zone I=200 F=POINT
-0.995 0.354069
-0.985 0.3571
-0.975 0.36013
-0.965 0.363158
-0.955 0.366185
-0.945 0.369209
-0.935 0.372232
-0.925 0.375255
-0.915 0.378277
-0.905 0.381298
-0.895 0.38432
-0.885 0.387342
-0.875 0.390363
-0.865 0.393383
-0.855 0.3964
-0.845 0.399415
-0.835 0.402428
-0.825 0.405439
-0.815 0.408448
-0.805 0.411457
-0.795 0.414466
-0.785 0.417474
-0.775 0.420482
-0.765 0.42349
-0.755 0.426496
-0.745 0.429499
-0.735 0.4325
-0.725 0.435499
-0.715 0.438494
-0.705 0.441488
-0.695 0.44448
-0.685 0.44747
-0.675 0.450459
-0.665 0.453449
-0.655 0.456438
-0.645 0.459425
-0.635 0.462412
-0.625 0.465396
-0.615 0.468376
-0.605 0.471355
-0.595 0.474329
-0.585 0.477299
-0.575 0.480268
-0.565 0.483234
-0.555 0.486197
-0.545 0.489161
-0.535 0.492124
-0.525 0.495085
-0.515 0.498045
-0.505 0.501005
-0.495 0.50396
-0.485 0.506911
-0.475 0.509861
-0.465 0.512804
-0.455 0.515742
-0.445 0.518678
-0.435 0.52161
-0.425 0.524538
-0.415 0.527466
-0.405 0.530391
-0.395 0.533315
-0.385 0.536244
-0.375 0.539341
-0.365 0.543944
-0.355 0.544339
-0.345 0.510031
-0.335 0.169258
-0.325 -0.0469908
-0.315 -0.0455593
-0.305 -0.0426633
-0.295 -0.0397633
-0.285 -0.0368595
-0.275 -0.0339518
-0.265 -0.0310402
-0.255 -0.0281246
-0.245 -0.0252048
-0.235 -0.0222805
-0.225 -0.0193509
-0.215 -0.0164149
-0.205 -0.0134699
-0.195 -0.0105104
-0.185 -0.00752151
-0.175 -0.0044461
-0.165 -0.000117105
-0.155 0.00329527
-0.145 0.00634123
-0.135 0.0093356
-0.125 0.0123158
-0.115 0.0152917
-0.105 0.0182666
-0.095 0.0212415
-0.085 0.0242165
-0.075 0.027192
-0.065 0.0301683
-0.055 0.0331459
-0.045 0.0361249
-0.035 0.0391056
-0.025 0.0420882
-0.015 0.0450727
-0.005 0.0480592
0.005 0.0510477
0.015 0.0540381
0.025 0.0570305
0.035 0.0600247
0.045 0.0630207
0.055 0.0660185
0.065 0.0690179
0.075 0.072019
0.085 0.0750215
0.095 0.0780256
0.105 0.0810311
0.115 0.084038
0.125 0.0870463
0.135 0.0900558
0.145 0.0930667
0.155 0.0960788
0.165 0.0990922
0.175 0.102107
0.185 0.105122
0.195 0.108139
0.205 0.111157
0.215 0.114176
0.225 0.117196
0.235 0.120218
0.245 0.12324
0.255 0.126263
0.265 0.129287
0.275 0.132312
0.285 0.135338
0.295 0.138365
0.305 0.141393
0.315 0.144421
0.325 0.147451
0.335 0.150481
0.345 0.153512
0.355 0.156543
0.365 0.159576
0.375 0.162609
0.385 0.165642
0.395 0.168676
0.405 0.171711
0.415 0.174747
0.425 0.177783
0.435 0.180819
0.445 0.183856
0.455 0.186894
0.465 0.189932
0.475 0.19297
0.485 0.196009
0.495 0.199048
0.505 0.202088
0.515 0.205128
0.525 0.208168
0.535 0.211209
0.545 0.21425
0.555 0.217291
0.565 0.220332
0.575 0.223374
0.585 0.226416
0.595 0.229458
0.605 0.2325
0.615 0.235543
0.625 0.238586
0.635 0.241628
0.645 0.244672
0.655 0.247715
0.665 0.250758
0.675 0.253801
0.685 0.256845
0.695 0.259888
0.705 0.262931
0.715 0.265974
0.725 0.269018
0.735 0.272061
0.745 0.275104
0.755 0.278146
0.765 0.281187
0.775 0.284229
0.785 0.28727
0.795 0.290311
0.805 0.293352
0.815 0.296393
0.825 0.299434
0.835 0.302474
0.845 0.305513
0.855 0.308551
0.865 0.311589
0.875 0.314626
0.885 0.317663
0.895 0.320701
0.905 0.323738
0.915 0.326776
0.925 0.329812
0.935 0.332847
0.945 0.335881
0.955 0.338913
0.965 0.341944
0.975 0.344976
0.985 0.348007
0.995 0.351038
