Title="tecplot dataformat98"
Variables="x","u"
Zone I=200 F=POINT
-0.995 0.687105
-0.985 0.691528
-0.975 0.695862
-0.965 0.700077
-0.955 0.704133
-0.945 0.708029
-0.935 0.711767
-0.925 0.715379
-0.915 0.718909
-0.905 0.722387
-0.895 0.725842
-0.885 0.729262
-0.875 0.732607
-0.865 0.735798
-0.855 0.738734
-0.845 0.741301
-0.835 0.743397
-0.825 0.74496
-0.815 0.745979
-0.805 0.746519
-0.795 0.746701
-0.785 0.746708
-0.775 0.746237
-0.765 0.694283
-0.755 0.0536167
-0.745 -0.243928
-0.735 -0.244351
-0.725 -0.244272
-0.715 -0.243756
-0.705 -0.242854
-0.695 -0.241609
-0.685 -0.240056
-0.675 -0.238226
-0.665 -0.236142
-0.655 -0.233828
-0.645 -0.231303
-0.635 -0.228583
-0.625 -0.225683
-0.615 -0.222616
-0.605 -0.219394
-0.595 -0.216027
-0.585 -0.212524
-0.575 -0.208894
-0.565 -0.205145
-0.555 -0.201283
-0.545 -0.197316
-0.535 -0.193248
-0.525 -0.189085
-0.515 -0.184832
-0.505 -0.180495
-0.495 -0.176076
-0.485 -0.171579
-0.475 -0.16701
-0.465 -0.16237
-0.455 -0.157664
-0.445 -0.152893
-0.435 -0.148062
-0.425 -0.143172
-0.415 -0.138226
-0.405 -0.133226
-0.395 -0.128175
-0.385 -0.123074
-0.375 -0.117926
-0.365 -0.112733
-0.355 -0.107495
-0.345 -0.102216
-0.335 -0.0968957
-0.325 -0.0915366
-0.315 -0.08614
-0.305 -0.0807072
-0.295 -0.0752395
-0.285 -0.0697381
-0.275 -0.0642044
-0.265 -0.0586394
-0.255 -0.0530441
-0.245 -0.0474197
-0.235 -0.0417669
-0.225 -0.0360863
-0.215 -0.0303782
-0.205 -0.0246416
-0.195 -0.0188726
-0.185 -0.0130575
-0.175 -0.00713401
-0.165 0.000405074
-0.155 0.00676408
-0.145 0.0127332
-0.135 0.0186763
-0.125 0.0246204
-0.115 0.0305709
-0.105 0.0365327
-0.095 0.0425089
-0.085 0.048501
-0.075 0.0545088
-0.065 0.0605319
-0.055 0.0665692
-0.045 0.0726198
-0.035 0.0786829
-0.025 0.0847578
-0.015 0.0908438
-0.005 0.0969405
0.005 0.103047
0.015 0.109164
0.025 0.11529
0.035 0.121424
0.045 0.127568
0.055 0.133719
0.065 0.139877
0.075 0.146043
0.085 0.152215
0.095 0.158394
0.105 0.164578
0.115 0.170768
0.125 0.176962
0.135 0.183162
0.145 0.189365
0.155 0.195572
0.165 0.201783
0.175 0.207997
0.185 0.214213
0.195 0.220432
0.205 0.226653
0.215 0.232875
0.225 0.239099
0.235 0.245325
0.245 0.251551
0.255 0.257778
0.265 0.264007
0.275 0.270231
0.285 0.276453
0.295 0.282677
0.305 0.288896
0.315 0.29511
0.325 0.301323
0.335 0.307537
0.345 0.313743
0.355 0.319942
0.365 0.326138
0.375 0.332337
0.385 0.338527
0.395 0.344704
0.405 0.350878
0.415 0.357051
0.425 0.36322
0.435 0.369375
0.445 0.375515
0.455 0.381654
0.465 0.387792
0.475 0.393919
0.485 0.400031
0.495 0.406124
0.505 0.412214
0.515 0.418302
0.525 0.424379
0.535 0.430438
0.545 0.436474
0.555 0.4425
0.565 0.448521
0.575 0.454534
0.585 0.46053
0.595 0.4665
0.605 0.472451
0.615 0.478385
0.625 0.484314
0.635 0.490231
0.645 0.496124
0.655 0.501992
0.665 0.507828
0.675 0.513648
0.685 0.519456
0.695 0.525249
0.705 0.531024
0.715 0.536762
0.725 0.542466
0.735 0.548139
0.745 0.55379
0.755 0.559427
0.765 0.565043
0.775 0.570632
0.785 0.576176
0.795 0.581677
0.805 0.587135
0.815 0.592563
0.825 0.597972
0.835 0.603354
0.845 0.608709
0.855 0.614012
0.865 0.619258
0.875 0.624442
0.885 0.62957
0.895 0.634664
0.905 0.639727
0.915 0.644762
0.925 0.649757
0.935 0.654688
0.945 0.659538
0.955 0.664295
0.965 0.668966
0.975 0.673564
0.985 0.678115
0.995 0.682627
