Title="tecplot dataformat1419"
Variables="x","u"
Zone I=200 F=POINT
-0.995 0.000445185
-0.985 0.00619806
-0.975 0.011951
-0.965 0.017704
-0.955 0.023457
-0.945 0.02921
-0.935 0.0349629
-0.925 0.0407157
-0.915 0.0464684
-0.905 0.0522209
-0.895 0.0579732
-0.885 0.0637253
-0.875 0.0694771
-0.865 0.0752285
-0.855 0.0809796
-0.845 0.0867303
-0.835 0.0924806
-0.825 0.0982305
-0.815 0.10398
-0.805 0.109729
-0.795 0.115477
-0.785 0.121224
-0.775 0.126971
-0.765 0.132718
-0.755 0.138463
-0.745 0.144208
-0.735 0.149952
-0.725 0.155695
-0.715 0.161437
-0.705 0.167179
-0.695 0.172919
-0.685 0.178659
-0.675 0.184397
-0.665 0.190134
-0.655 0.19587
-0.645 0.201606
-0.635 0.207339
-0.625 0.213072
-0.615 0.218803
-0.605 0.224533
-0.595 0.230262
-0.585 0.235989
-0.575 0.241715
-0.565 0.247439
-0.555 0.253162
-0.545 0.258884
-0.535 0.264603
-0.525 0.270321
-0.515 0.276037
-0.505 0.281752
-0.495 0.287465
-0.485 0.293175
-0.475 0.298884
-0.465 0.304591
-0.455 0.310296
-0.445 0.315999
-0.435 0.3217
-0.425 0.327399
-0.415 0.333096
-0.405 0.33879
-0.395 0.344482
-0.385 0.350172
-0.375 0.355859
-0.365 0.361544
-0.355 0.367226
-0.345 0.372906
-0.335 0.378583
-0.325 0.384258
-0.315 0.389929
-0.305 0.395598
-0.295 0.401264
-0.285 0.406928
-0.275 0.412588
-0.265 0.418245
-0.255 0.423899
-0.245 0.42955
-0.235 0.435197
-0.225 0.440842
-0.215 0.446483
-0.205 0.45212
-0.195 0.457754
-0.185 0.463385
-0.175 0.469011
-0.165 0.474635
-0.155 0.480252
-0.145 0.48587
-0.135 0.491477
-0.125 0.497091
-0.115 0.502683
-0.105 0.5083
-0.095 0.513866
-0.085 0.519503
-0.075 0.525016
-0.065 0.530718
-0.055 0.536119
-0.045 0.541996
-0.035 0.547169
-0.025 0.553536
-0.015 0.557066
-0.005 0.469679
0.005 -0.0643118
0.015 -0.534747
0.025 -0.556161
0.035 -0.550654
0.045 -0.545127
0.055 -0.539595
0.065 -0.534057
0.075 -0.528514
0.085 -0.522966
0.095 -0.517412
0.105 -0.511853
0.115 -0.506289
0.125 -0.50072
0.135 -0.495146
0.145 -0.489568
0.155 -0.483984
0.165 -0.478397
0.175 -0.472804
0.185 -0.467208
0.195 -0.461607
0.205 -0.456002
0.215 -0.450393
0.225 -0.444779
0.235 -0.439162
0.245 -0.433541
0.255 -0.427916
0.265 -0.422288
0.275 -0.416656
0.285 -0.41102
0.295 -0.405381
0.305 -0.399738
0.315 -0.394092
0.325 -0.388443
0.335 -0.38279
0.345 -0.377135
0.355 -0.371476
0.365 -0.365814
0.375 -0.36015
0.385 -0.354482
0.395 -0.348812
0.405 -0.343139
0.415 -0.337463
0.425 -0.331784
0.435 -0.326103
0.445 -0.320419
0.455 -0.314733
0.465 -0.309045
0.475 -0.303354
0.485 -0.29766
0.495 -0.291965
0.505 -0.286267
0.515 -0.280567
0.525 -0.274865
0.535 -0.269161
0.545 -0.263455
0.555 -0.257747
0.565 -0.252037
0.575 -0.246325
0.585 -0.240612
0.595 -0.234896
0.605 -0.229179
0.615 -0.22346
0.625 -0.21774
0.635 -0.212018
0.645 -0.206294
0.655 -0.200569
0.665 -0.194842
0.675 -0.189114
0.685 -0.183385
0.695 -0.177654
0.705 -0.171922
0.715 -0.166189
0.725 -0.160454
0.735 -0.154719
0.745 -0.148982
0.755 -0.143244
0.765 -0.137505
0.775 -0.131765
0.785 -0.126024
0.795 -0.120282
0.805 -0.114539
0.815 -0.108796
0.825 -0.103051
0.835 -0.0973063
0.845 -0.0915603
0.855 -0.0858137
0.865 -0.0800664
0.875 -0.0743184
0.885 -0.0685699
0.895 -0.0628208
0.905 -0.0570712
0.915 -0.0513211
0.925 -0.0455706
0.935 -0.0398197
0.945 -0.0340684
0.955 -0.0283167
0.965 -0.0225648
0.975 -0.0168126
0.985 -0.0110602
0.995 -0.00530757
