Title="tecplot dataformat1145"
Variables="x","u"
Zone I=200 F=POINT
-0.995 0.000820769
-0.985 0.00765043
-0.975 0.0144802
-0.965 0.02131
-0.955 0.0281398
-0.945 0.0349695
-0.935 0.041799
-0.925 0.0486282
-0.915 0.0554571
-0.905 0.0622857
-0.895 0.0691138
-0.885 0.0759413
-0.875 0.0827683
-0.865 0.0895945
-0.855 0.09642
-0.845 0.103245
-0.835 0.110069
-0.825 0.116891
-0.815 0.123713
-0.805 0.130534
-0.795 0.137353
-0.785 0.144171
-0.775 0.150988
-0.765 0.157804
-0.755 0.164618
-0.745 0.17143
-0.735 0.178241
-0.725 0.18505
-0.715 0.191857
-0.705 0.198662
-0.695 0.205466
-0.685 0.212267
-0.675 0.219066
-0.665 0.225863
-0.655 0.232658
-0.645 0.23945
-0.635 0.24624
-0.625 0.253027
-0.615 0.259812
-0.605 0.266594
-0.595 0.273373
-0.585 0.280149
-0.575 0.286922
-0.565 0.293692
-0.555 0.300459
-0.545 0.307223
-0.535 0.313984
-0.525 0.32074
-0.515 0.327494
-0.505 0.334244
-0.495 0.34099
-0.485 0.347732
-0.475 0.35447
-0.465 0.361204
-0.455 0.367934
-0.445 0.374659
-0.435 0.381381
-0.425 0.388097
-0.415 0.394809
-0.405 0.401517
-0.395 0.408219
-0.385 0.414917
-0.375 0.421609
-0.365 0.428297
-0.355 0.434978
-0.345 0.441655
-0.335 0.448326
-0.325 0.454991
-0.315 0.46165
-0.305 0.468303
-0.295 0.47495
-0.285 0.48159
-0.275 0.488224
-0.265 0.494852
-0.255 0.501472
-0.245 0.508086
-0.235 0.514693
-0.225 0.521292
-0.215 0.527884
-0.205 0.534468
-0.195 0.541044
-0.185 0.547613
-0.175 0.554172
-0.165 0.560725
-0.155 0.567267
-0.145 0.573804
-0.135 0.580324
-0.125 0.586849
-0.115 0.59334
-0.105 0.599863
-0.095 0.606309
-0.085 0.612853
-0.075 0.619216
-0.065 0.625846
-0.055 0.632041
-0.045 0.638921
-0.035 0.644795
-0.025 0.65245
-0.015 0.655585
-0.005 0.53559
0.005 -0.128973
0.015 -0.636968
0.025 -0.653785
0.035 -0.647456
0.045 -0.641112
0.055 -0.634755
0.065 -0.628385
0.075 -0.622002
0.085 -0.615606
0.095 -0.609198
0.105 -0.602778
0.115 -0.596346
0.125 -0.589903
0.135 -0.583449
0.145 -0.576984
0.155 -0.570509
0.165 -0.564023
0.175 -0.557528
0.185 -0.551022
0.195 -0.544507
0.205 -0.537983
0.215 -0.53145
0.225 -0.524908
0.235 -0.518357
0.245 -0.511797
0.255 -0.50523
0.265 -0.498654
0.275 -0.492071
0.285 -0.48548
0.295 -0.478881
0.305 -0.472276
0.315 -0.465663
0.325 -0.459043
0.335 -0.452416
0.345 -0.445782
0.355 -0.439142
0.365 -0.432496
0.375 -0.425843
0.385 -0.419185
0.395 -0.41252
0.405 -0.40585
0.415 -0.399174
0.425 -0.392493
0.435 -0.385806
0.445 -0.379114
0.455 -0.372417
0.465 -0.365715
0.475 -0.359008
0.485 -0.352296
0.495 -0.34558
0.505 -0.338859
0.515 -0.332134
0.525 -0.325405
0.535 -0.318671
0.545 -0.311933
0.555 -0.305191
0.565 -0.298446
0.575 -0.291696
0.585 -0.284943
0.595 -0.278187
0.605 -0.271427
0.615 -0.264663
0.625 -0.257896
0.635 -0.251127
0.645 -0.244354
0.655 -0.237578
0.665 -0.230799
0.675 -0.224017
0.685 -0.217233
0.695 -0.210446
0.705 -0.203656
0.715 -0.196864
0.725 -0.19007
0.735 -0.183273
0.745 -0.176474
0.755 -0.169673
0.765 -0.16287
0.775 -0.156064
0.785 -0.149257
0.795 -0.142449
0.805 -0.135638
0.815 -0.128826
0.825 -0.122012
0.835 -0.115197
0.845 -0.10838
0.855 -0.101562
0.865 -0.0947426
0.875 -0.0879221
0.885 -0.0811004
0.895 -0.0742777
0.905 -0.067454
0.915 -0.0606294
0.925 -0.0538039
0.935 -0.0469777
0.945 -0.0401509
0.955 -0.0333234
0.965 -0.0264953
0.975 -0.0196668
0.985 -0.0128379
0.995 -0.00600871
