Title="tecplot dataformat1004"
Variables="x","u"
Zone I=200 F=POINT
-0.995 0.00109907
-0.985 0.00865676
-0.975 0.0162146
-0.965 0.0237724
-0.955 0.0313301
-0.945 0.0388877
-0.935 0.0464449
-0.925 0.0540018
-0.915 0.0615581
-0.905 0.0691138
-0.895 0.0766688
-0.885 0.0842229
-0.875 0.0917761
-0.865 0.0993282
-0.855 0.106879
-0.845 0.114429
-0.835 0.121977
-0.825 0.129524
-0.815 0.137069
-0.805 0.144613
-0.795 0.152154
-0.785 0.159694
-0.775 0.167232
-0.765 0.174767
-0.755 0.1823
-0.745 0.189831
-0.735 0.197359
-0.725 0.204885
-0.715 0.212408
-0.705 0.219928
-0.695 0.227445
-0.685 0.234959
-0.675 0.242469
-0.665 0.249976
-0.655 0.25748
-0.645 0.26498
-0.635 0.272476
-0.625 0.279968
-0.615 0.287457
-0.605 0.294941
-0.595 0.302421
-0.585 0.309896
-0.575 0.317367
-0.565 0.324833
-0.555 0.332294
-0.545 0.33975
-0.535 0.347201
-0.525 0.354647
-0.515 0.362087
-0.505 0.369521
-0.495 0.37695
-0.485 0.384372
-0.475 0.391789
-0.465 0.399199
-0.455 0.406603
-0.445 0.414
-0.435 0.42139
-0.425 0.428773
-0.415 0.436149
-0.405 0.443517
-0.395 0.450878
-0.385 0.458231
-0.375 0.465576
-0.365 0.472913
-0.355 0.480241
-0.345 0.487561
-0.335 0.494871
-0.325 0.502173
-0.315 0.509465
-0.305 0.516748
-0.295 0.524021
-0.285 0.531283
-0.275 0.538536
-0.265 0.545777
-0.255 0.553008
-0.245 0.560227
-0.235 0.567435
-0.225 0.574632
-0.215 0.581816
-0.205 0.588987
-0.195 0.596146
-0.185 0.603292
-0.175 0.610424
-0.165 0.617543
-0.155 0.624645
-0.145 0.631739
-0.135 0.638807
-0.125 0.645878
-0.115 0.652902
-0.105 0.659961
-0.095 0.666921
-0.085 0.673997
-0.075 0.680846
-0.065 0.688018
-0.055 0.694654
-0.045 0.702123
-0.035 0.708369
-0.025 0.716854
-0.015 0.719368
-0.005 0.574501
0.005 -0.179573
0.015 -0.703419
0.025 -0.716843
0.035 -0.710082
0.045 -0.703302
0.055 -0.696498
0.065 -0.689672
0.075 -0.682823
0.085 -0.675953
0.095 -0.669062
0.105 -0.662151
0.115 -0.65522
0.125 -0.64827
0.135 -0.641302
0.145 -0.634315
0.155 -0.627311
0.165 -0.620291
0.175 -0.613253
0.185 -0.6062
0.195 -0.599131
0.205 -0.592047
0.215 -0.584948
0.225 -0.577835
0.235 -0.570708
0.245 -0.563567
0.255 -0.556413
0.265 -0.549246
0.275 -0.542066
0.285 -0.534874
0.295 -0.527671
0.305 -0.520455
0.315 -0.513228
0.325 -0.505991
0.335 -0.498742
0.345 -0.491483
0.355 -0.484214
0.365 -0.476935
0.375 -0.469646
0.385 -0.462348
0.395 -0.455041
0.405 -0.447724
0.415 -0.440399
0.425 -0.433065
0.435 -0.425723
0.445 -0.418373
0.455 -0.411015
0.465 -0.403649
0.475 -0.396276
0.485 -0.388896
0.495 -0.381508
0.505 -0.374114
0.515 -0.366713
0.525 -0.359305
0.535 -0.351891
0.545 -0.34447
0.555 -0.337044
0.565 -0.329611
0.575 -0.322173
0.585 -0.31473
0.595 -0.307281
0.605 -0.299827
0.615 -0.292368
0.625 -0.284903
0.635 -0.277434
0.645 -0.269961
0.655 -0.262483
0.665 -0.255
0.675 -0.247513
0.685 -0.240022
0.695 -0.232528
0.705 -0.225029
0.715 -0.217527
0.725 -0.210021
0.735 -0.202512
0.745 -0.194999
0.755 -0.187483
0.765 -0.179964
0.775 -0.172443
0.785 -0.164918
0.795 -0.157391
0.805 -0.149861
0.815 -0.142329
0.825 -0.134794
0.835 -0.127257
0.845 -0.119718
0.855 -0.112178
0.865 -0.104635
0.875 -0.0970902
0.885 -0.089544
0.895 -0.0819963
0.905 -0.0744471
0.915 -0.0668966
0.925 -0.0593449
0.935 -0.0517921
0.945 -0.0442383
0.955 -0.0366837
0.965 -0.0291282
0.975 -0.0215721
0.985 -0.0140155
0.995 -0.00645837
