Title="tecplot dataformat1817"
Variables="x","u"
Zone I=200 F=POINT
-0.995 0.000121349
-0.985 0.00480231
-0.975 0.00948332
-0.965 0.0141644
-0.955 0.0188454
-0.945 0.0235265
-0.935 0.0282076
-0.925 0.0328886
-0.915 0.0375696
-0.905 0.0422505
-0.895 0.0469314
-0.885 0.0516121
-0.875 0.0562928
-0.865 0.0609733
-0.855 0.0656537
-0.845 0.0703339
-0.835 0.075014
-0.825 0.0796939
-0.815 0.0843735
-0.805 0.089053
-0.795 0.0937322
-0.785 0.0984112
-0.775 0.10309
-0.765 0.107768
-0.755 0.112446
-0.745 0.117124
-0.735 0.121802
-0.725 0.126479
-0.715 0.131156
-0.705 0.135832
-0.695 0.140508
-0.685 0.145183
-0.675 0.149859
-0.665 0.154533
-0.655 0.159207
-0.645 0.163881
-0.635 0.168554
-0.625 0.173227
-0.615 0.177899
-0.605 0.182571
-0.595 0.187242
-0.585 0.191912
-0.575 0.196582
-0.565 0.201252
-0.555 0.20592
-0.545 0.210588
-0.535 0.215255
-0.525 0.219922
-0.515 0.224588
-0.505 0.229253
-0.495 0.233917
-0.485 0.238581
-0.475 0.243244
-0.465 0.247906
-0.455 0.252567
-0.445 0.257227
-0.435 0.261887
-0.425 0.266546
-0.415 0.271203
-0.405 0.27586
-0.395 0.280516
-0.385 0.285171
-0.375 0.289825
-0.365 0.294477
-0.355 0.299129
-0.345 0.30378
-0.335 0.30843
-0.325 0.313078
-0.315 0.317726
-0.305 0.322372
-0.295 0.327018
-0.285 0.331662
-0.275 0.336305
-0.265 0.340946
-0.255 0.345587
-0.245 0.350226
-0.235 0.354863
-0.225 0.3595
-0.215 0.364135
-0.205 0.368769
-0.195 0.373401
-0.185 0.378032
-0.175 0.382661
-0.165 0.38729
-0.155 0.391916
-0.145 0.396542
-0.135 0.401163
-0.125 0.405789
-0.115 0.410403
-0.105 0.415032
-0.095 0.419631
-0.085 0.424276
-0.075 0.428844
-0.065 0.43353
-0.055 0.43803
-0.045 0.442826
-0.035 0.447178
-0.025 0.452255
-0.015 0.455709
-0.005 0.39602
0.005 -0.0123479
0.015 -0.430379
0.025 -0.455493
0.035 -0.45094
0.045 -0.446352
0.055 -0.441763
0.065 -0.437172
0.075 -0.432578
0.085 -0.427983
0.095 -0.423385
0.105 -0.418786
0.115 -0.414184
0.125 -0.409581
0.135 -0.404975
0.145 -0.400368
0.155 -0.395759
0.165 -0.391148
0.175 -0.386536
0.185 -0.381921
0.195 -0.377305
0.205 -0.372687
0.215 -0.368068
0.225 -0.363447
0.235 -0.358824
0.245 -0.3542
0.255 -0.349574
0.265 -0.344947
0.275 -0.340318
0.285 -0.335688
0.295 -0.331056
0.305 -0.326423
0.315 -0.321789
0.325 -0.317153
0.335 -0.312516
0.345 -0.307877
0.355 -0.303237
0.365 -0.298596
0.375 -0.293954
0.385 -0.289311
0.395 -0.284666
0.405 -0.28002
0.415 -0.275373
0.425 -0.270725
0.435 -0.266076
0.445 -0.261425
0.455 -0.256774
0.465 -0.252121
0.475 -0.247468
0.485 -0.242814
0.495 -0.238158
0.505 -0.233502
0.515 -0.228845
0.525 -0.224186
0.535 -0.219527
0.545 -0.214867
0.555 -0.210206
0.565 -0.205545
0.575 -0.200882
0.585 -0.196219
0.595 -0.191555
0.605 -0.18689
0.615 -0.182225
0.625 -0.177558
0.635 -0.172891
0.645 -0.168224
0.655 -0.163555
0.665 -0.158886
0.675 -0.154217
0.685 -0.149547
0.695 -0.144876
0.705 -0.140204
0.715 -0.135533
0.725 -0.13086
0.735 -0.126187
0.745 -0.121514
0.755 -0.11684
0.765 -0.112165
0.775 -0.10749
0.785 -0.102815
0.795 -0.0981389
0.805 -0.0934627
0.815 -0.0887861
0.825 -0.0841092
0.835 -0.0794318
0.845 -0.0747542
0.855 -0.0700762
0.865 -0.0653979
0.875 -0.0607193
0.885 -0.0560405
0.895 -0.0513614
0.905 -0.046682
0.915 -0.0420024
0.925 -0.0373226
0.935 -0.0326426
0.945 -0.0279625
0.955 -0.0232821
0.965 -0.0186017
0.975 -0.0139211
0.985 -0.00924036
0.995 -0.00455955
