Title="tecplot dataformat1581"
Variables="x","u"
Zone I=200 F=POINT
-0.995 0.000290204
-0.985 0.00555257
-0.975 0.010815
-0.965 0.0160775
-0.955 0.02134
-0.945 0.0266024
-0.935 0.0318649
-0.925 0.0371273
-0.915 0.0423896
-0.905 0.0476518
-0.895 0.0529138
-0.885 0.0581757
-0.875 0.0634374
-0.865 0.0686989
-0.855 0.0739602
-0.845 0.0792212
-0.835 0.0844819
-0.825 0.0897423
-0.815 0.0950023
-0.805 0.100262
-0.795 0.105521
-0.785 0.11078
-0.775 0.116039
-0.765 0.121297
-0.755 0.126554
-0.745 0.131811
-0.735 0.137067
-0.725 0.142323
-0.715 0.147579
-0.705 0.152833
-0.695 0.158087
-0.685 0.16334
-0.675 0.168593
-0.665 0.173845
-0.655 0.179096
-0.645 0.184346
-0.635 0.189596
-0.625 0.194844
-0.615 0.200092
-0.605 0.205339
-0.595 0.210585
-0.585 0.21583
-0.575 0.221073
-0.565 0.226316
-0.555 0.231558
-0.545 0.236799
-0.535 0.242039
-0.525 0.247277
-0.515 0.252515
-0.505 0.257751
-0.495 0.262986
-0.485 0.268219
-0.475 0.273452
-0.465 0.278683
-0.455 0.283913
-0.445 0.289141
-0.435 0.294368
-0.425 0.299593
-0.415 0.304817
-0.405 0.31004
-0.395 0.31526
-0.385 0.32048
-0.375 0.325697
-0.365 0.330913
-0.355 0.336128
-0.345 0.34134
-0.335 0.346551
-0.325 0.35176
-0.315 0.356967
-0.305 0.362172
-0.295 0.367375
-0.285 0.372577
-0.275 0.377776
-0.265 0.382973
-0.255 0.388168
-0.245 0.393361
-0.235 0.398552
-0.225 0.403741
-0.215 0.408927
-0.205 0.414111
-0.195 0.419293
-0.185 0.424472
-0.175 0.429649
-0.165 0.434824
-0.155 0.439995
-0.145 0.445166
-0.135 0.450329
-0.125 0.455498
-0.115 0.460651
-0.105 0.465824
-0.095 0.470956
-0.085 0.476147
-0.075 0.481237
-0.065 0.486482
-0.055 0.491482
-0.045 0.496871
-0.035 0.50168
-0.025 0.507455
-0.015 0.511
-0.005 0.43687
0.005 -0.0389676
0.015 -0.487196
0.025 -0.510435
0.035 -0.505352
0.045 -0.500243
0.055 -0.495131
0.065 -0.490015
0.075 -0.484896
0.085 -0.479774
0.095 -0.474647
0.105 -0.469518
0.115 -0.464385
0.125 -0.459249
0.135 -0.454109
0.145 -0.448967
0.155 -0.443821
0.165 -0.438672
0.175 -0.433521
0.185 -0.428366
0.195 -0.423209
0.205 -0.418048
0.215 -0.412885
0.225 -0.40772
0.235 -0.402551
0.245 -0.39738
0.255 -0.392207
0.265 -0.387031
0.275 -0.381852
0.285 -0.376671
0.295 -0.371488
0.305 -0.366302
0.315 -0.361114
0.325 -0.355924
0.335 -0.350732
0.345 -0.345537
0.355 -0.34034
0.365 -0.335142
0.375 -0.329941
0.385 -0.324738
0.395 -0.319534
0.405 -0.314327
0.415 -0.309119
0.425 -0.303909
0.435 -0.298697
0.445 -0.293483
0.455 -0.288267
0.465 -0.28305
0.475 -0.277831
0.485 -0.272611
0.495 -0.267389
0.505 -0.262165
0.515 -0.25694
0.525 -0.251714
0.535 -0.246486
0.545 -0.241257
0.555 -0.236026
0.565 -0.230794
0.575 -0.225561
0.585 -0.220326
0.595 -0.21509
0.605 -0.209853
0.615 -0.204615
0.625 -0.199376
0.635 -0.194135
0.645 -0.188894
0.655 -0.183651
0.665 -0.178407
0.675 -0.173163
0.685 -0.167917
0.695 -0.16267
0.705 -0.157423
0.715 -0.152174
0.725 -0.146925
0.735 -0.141675
0.745 -0.136424
0.755 -0.131173
0.765 -0.12592
0.775 -0.120667
0.785 -0.115414
0.795 -0.110159
0.805 -0.104904
0.815 -0.0996483
0.825 -0.0943921
0.835 -0.0891353
0.845 -0.0838779
0.855 -0.0786201
0.865 -0.0733618
0.875 -0.068103
0.885 -0.0628438
0.895 -0.0575842
0.905 -0.0523242
0.915 -0.0470639
0.925 -0.0418033
0.935 -0.0365424
0.945 -0.0312812
0.955 -0.0260197
0.965 -0.0207581
0.975 -0.0154962
0.985 -0.0102342
0.995 -0.00497207
