Title="tecplot dataformat1257"
Variables="x","u"
Zone I=200 F=POINT
-0.995 0.000645801
-0.985 0.00699005
-0.975 0.0133344
-0.965 0.0196788
-0.955 0.0260232
-0.945 0.0323675
-0.935 0.0387117
-0.925 0.0450558
-0.915 0.0513996
-0.905 0.0577431
-0.895 0.0640863
-0.885 0.0704292
-0.875 0.0767715
-0.865 0.0831135
-0.855 0.0894548
-0.845 0.0957956
-0.835 0.102136
-0.825 0.108475
-0.815 0.114814
-0.805 0.121152
-0.795 0.127488
-0.785 0.133825
-0.775 0.14016
-0.765 0.146494
-0.755 0.152826
-0.745 0.159158
-0.735 0.165489
-0.725 0.171818
-0.715 0.178146
-0.705 0.184473
-0.695 0.190798
-0.685 0.197121
-0.675 0.203443
-0.665 0.209764
-0.655 0.216083
-0.645 0.2224
-0.635 0.228715
-0.625 0.235028
-0.615 0.24134
-0.605 0.247649
-0.595 0.253957
-0.585 0.260262
-0.575 0.266565
-0.565 0.272866
-0.555 0.279164
-0.545 0.285461
-0.535 0.291754
-0.525 0.298045
-0.515 0.304334
-0.505 0.31062
-0.495 0.316903
-0.485 0.323184
-0.475 0.329461
-0.465 0.335736
-0.455 0.342007
-0.445 0.348275
-0.435 0.354541
-0.425 0.360803
-0.415 0.367061
-0.405 0.373316
-0.395 0.379568
-0.385 0.385816
-0.375 0.392061
-0.365 0.398301
-0.355 0.404538
-0.345 0.410771
-0.335 0.417
-0.325 0.423224
-0.315 0.429445
-0.305 0.435661
-0.295 0.441872
-0.285 0.448079
-0.275 0.454282
-0.265 0.46048
-0.255 0.466673
-0.245 0.472861
-0.235 0.479044
-0.225 0.485221
-0.215 0.491394
-0.205 0.497561
-0.195 0.503722
-0.185 0.509879
-0.175 0.516028
-0.165 0.522173
-0.155 0.52831
-0.145 0.534445
-0.135 0.540565
-0.125 0.546693
-0.115 0.552792
-0.105 0.55892
-0.095 0.564984
-0.085 0.571134
-0.075 0.577129
-0.065 0.583356
-0.055 0.58921
-0.045 0.595653
-0.035 0.601229
-0.025 0.608309
-0.015 0.61169
-0.005 0.506999
0.005 -0.0983048
0.015 -0.591346
0.025 -0.610319
0.035 -0.604339
0.045 -0.598343
0.055 -0.592338
0.065 -0.586324
0.075 -0.580302
0.085 -0.57427
0.095 -0.56823
0.105 -0.562182
0.115 -0.556126
0.125 -0.550061
0.135 -0.54399
0.145 -0.53791
0.155 -0.531823
0.165 -0.525729
0.175 -0.519628
0.185 -0.51352
0.195 -0.507406
0.205 -0.501285
0.215 -0.495157
0.225 -0.489023
0.235 -0.482883
0.245 -0.476737
0.255 -0.470585
0.265 -0.464427
0.275 -0.458264
0.285 -0.452095
0.295 -0.445921
0.305 -0.439741
0.315 -0.433557
0.325 -0.427367
0.335 -0.421173
0.345 -0.414973
0.355 -0.408769
0.365 -0.40256
0.375 -0.396347
0.385 -0.39013
0.395 -0.383908
0.405 -0.377682
0.415 -0.371452
0.425 -0.365218
0.435 -0.35898
0.445 -0.352738
0.455 -0.346492
0.465 -0.340243
0.475 -0.33399
0.485 -0.327733
0.495 -0.321474
0.505 -0.315211
0.515 -0.308944
0.525 -0.302675
0.535 -0.296402
0.545 -0.290127
0.555 -0.283848
0.565 -0.277567
0.575 -0.271283
0.585 -0.264996
0.595 -0.258706
0.605 -0.252414
0.615 -0.24612
0.625 -0.239823
0.635 -0.233524
0.645 -0.227222
0.655 -0.220918
0.665 -0.214612
0.675 -0.208304
0.685 -0.201994
0.695 -0.195682
0.705 -0.189368
0.715 -0.183052
0.725 -0.176734
0.735 -0.170415
0.745 -0.164094
0.755 -0.157771
0.765 -0.151447
0.775 -0.145121
0.785 -0.138794
0.795 -0.132466
0.805 -0.126136
0.815 -0.119805
0.825 -0.113473
0.835 -0.10714
0.845 -0.100805
0.855 -0.0944699
0.865 -0.0881336
0.875 -0.0817963
0.885 -0.0754582
0.895 -0.0691193
0.905 -0.0627796
0.915 -0.0564393
0.925 -0.0500983
0.935 -0.0437568
0.945 -0.0374147
0.955 -0.0310721
0.965 -0.0247292
0.975 -0.0183858
0.985 -0.0120422
0.995 -0.0056983
