Title="tecplot dataformat198"
Variables="x","u"
Zone I=200 F=POINT
-0.995 0.00735171
-0.985 0.0267219
-0.975 0.046088
-0.965 0.0654454
-0.955 0.0847894
-0.945 0.104116
-0.935 0.123419
-0.925 0.142696
-0.915 0.161941
-0.905 0.18115
-0.895 0.200318
-0.885 0.219439
-0.875 0.23851
-0.865 0.257525
-0.855 0.27648
-0.845 0.29537
-0.835 0.314188
-0.825 0.332931
-0.815 0.351592
-0.805 0.370168
-0.795 0.388651
-0.785 0.407037
-0.775 0.425319
-0.765 0.443493
-0.755 0.461551
-0.745 0.479489
-0.735 0.497299
-0.725 0.514975
-0.715 0.532511
-0.705 0.5499
-0.695 0.567134
-0.685 0.584207
-0.675 0.601111
-0.665 0.617839
-0.655 0.634382
-0.645 0.650732
-0.635 0.666882
-0.625 0.682821
-0.615 0.698541
-0.605 0.714032
-0.595 0.729285
-0.585 0.744289
-0.575 0.759033
-0.565 0.773506
-0.555 0.787697
-0.545 0.801593
-0.535 0.815181
-0.525 0.828449
-0.515 0.841381
-0.505 0.853964
-0.495 0.866181
-0.485 0.878017
-0.475 0.889453
-0.465 0.900473
-0.455 0.911057
-0.445 0.921183
-0.435 0.930832
-0.425 0.93998
-0.415 0.948603
-0.405 0.956674
-0.395 0.964168
-0.385 0.971053
-0.375 0.9773
-0.365 0.982874
-0.355 0.98774
-0.345 0.991858
-0.335 0.995188
-0.325 0.997685
-0.315 0.999299
-0.305 0.99998
-0.295 0.99967
-0.285 0.998309
-0.275 0.995828
-0.265 0.992156
-0.255 0.987211
-0.245 0.980908
-0.235 0.97315
-0.225 0.963831
-0.215 0.952837
-0.205 0.94004
-0.195 0.925298
-0.185 0.908456
-0.175 0.889343
-0.165 0.867767
-0.155 0.843521
-0.145 0.816376
-0.135 0.786083
-0.125 0.752375
-0.115 0.714967
-0.105 0.673572
-0.095 0.627905
-0.085 0.577708
-0.075 0.522782
-0.065 0.463028
-0.055 0.398497
-0.045 0.329443
-0.035 0.256372
-0.025 0.180051
-0.015 0.101489
-0.005 0.0218664
0.005 -0.0575707
0.015 -0.135625
0.025 -0.211246
0.035 -0.283598
0.045 -0.352078
0.055 -0.416311
0.065 -0.476116
0.075 -0.531462
0.085 -0.582434
0.095 -0.629189
0.105 -0.671932
0.115 -0.710892
0.125 -0.746307
0.135 -0.778414
0.145 -0.807444
0.155 -0.833615
0.165 -0.857129
0.175 -0.878178
0.185 -0.896936
0.195 -0.913564
0.205 -0.928209
0.215 -0.941008
0.225 -0.952083
0.235 -0.961548
0.245 -0.969507
0.255 -0.976055
0.265 -0.981279
0.275 -0.98526
0.285 -0.988072
0.295 -0.989782
0.305 -0.990453
0.315 -0.990144
0.325 -0.988907
0.335 -0.986793
0.345 -0.983849
0.355 -0.980116
0.365 -0.975636
0.375 -0.970445
0.385 -0.964579
0.395 -0.95807
0.405 -0.950948
0.415 -0.943243
0.425 -0.934982
0.435 -0.926189
0.445 -0.916889
0.455 -0.907104
0.465 -0.896856
0.475 -0.886165
0.485 -0.875049
0.495 -0.863528
0.505 -0.851617
0.515 -0.839334
0.525 -0.826694
0.535 -0.813712
0.545 -0.800401
0.555 -0.786775
0.565 -0.772848
0.575 -0.75863
0.585 -0.744135
0.595 -0.729373
0.605 -0.714355
0.615 -0.699092
0.625 -0.683593
0.635 -0.667868
0.645 -0.651926
0.655 -0.635776
0.665 -0.619427
0.675 -0.602887
0.685 -0.586164
0.695 -0.569266
0.705 -0.5522
0.715 -0.534974
0.725 -0.517594
0.735 -0.500068
0.745 -0.482401
0.755 -0.464602
0.765 -0.446675
0.775 -0.428627
0.785 -0.410465
0.795 -0.392193
0.805 -0.373819
0.815 -0.355346
0.825 -0.336782
0.835 -0.31813
0.845 -0.299398
0.855 -0.280589
0.865 -0.261709
0.875 -0.242763
0.885 -0.223756
0.895 -0.204693
0.905 -0.185578
0.915 -0.166417
0.925 -0.147215
0.935 -0.127975
0.945 -0.108703
0.955 -0.0894031
0.965 -0.0700802
0.975 -0.0507386
0.985 -0.0313831
0.995 -0.0120182
