Title="tecplot dataformat180"
Variables="x","u"
Zone I=200 F=POINT
-0.995 0.00779584
-0.985 0.0278679
-0.975 0.0479349
-0.965 0.0679915
-0.955 0.0880327
-0.945 0.108053
-0.935 0.128047
-0.925 0.14801
-0.915 0.167936
-0.905 0.18782
-0.895 0.207656
-0.885 0.227439
-0.875 0.247163
-0.865 0.266823
-0.855 0.286413
-0.845 0.305927
-0.835 0.32536
-0.825 0.344705
-0.815 0.363956
-0.805 0.383107
-0.795 0.402152
-0.785 0.421085
-0.775 0.439898
-0.765 0.458586
-0.755 0.477141
-0.745 0.495557
-0.735 0.513825
-0.725 0.531939
-0.715 0.549892
-0.705 0.567674
-0.695 0.585279
-0.685 0.602699
-0.675 0.619923
-0.665 0.636945
-0.655 0.653754
-0.645 0.670341
-0.635 0.686697
-0.625 0.702811
-0.615 0.718673
-0.605 0.734272
-0.595 0.749598
-0.585 0.764637
-0.575 0.779378
-0.565 0.793809
-0.555 0.807915
-0.545 0.821684
-0.535 0.8351
-0.525 0.848148
-0.515 0.860813
-0.505 0.873078
-0.495 0.884926
-0.485 0.896337
-0.475 0.907294
-0.465 0.917774
-0.455 0.927758
-0.445 0.937223
-0.435 0.946143
-0.425 0.954495
-0.415 0.962252
-0.405 0.969384
-0.395 0.975863
-0.385 0.981655
-0.375 0.986727
-0.365 0.991042
-0.355 0.994563
-0.345 0.997246
-0.335 0.999048
-0.325 0.999921
-0.315 0.999815
-0.305 0.998675
-0.295 0.996442
-0.285 0.993053
-0.275 0.988439
-0.265 0.982527
-0.255 0.975238
-0.245 0.966486
-0.235 0.956178
-0.225 0.944215
-0.215 0.930488
-0.205 0.914881
-0.195 0.89727
-0.185 0.877518
-0.175 0.855482
-0.165 0.83101
-0.155 0.803941
-0.145 0.774108
-0.135 0.74134
-0.125 0.705468
-0.115 0.666329
-0.105 0.623779
-0.095 0.5777
-0.085 0.528021
-0.075 0.474733
-0.065 0.417911
-0.055 0.357734
-0.045 0.294502
-0.035 0.228642
-0.025 0.160706
-0.015 0.0913518
-0.005 0.0213079
0.005 -0.0486676
0.015 -0.117834
0.025 -0.185509
0.035 -0.251104
0.045 -0.314138
0.055 -0.374251
0.065 -0.431192
0.075 -0.484811
0.085 -0.535045
0.095 -0.581897
0.105 -0.625421
0.115 -0.665711
0.125 -0.702885
0.135 -0.737076
0.145 -0.768427
0.155 -0.797085
0.165 -0.823196
0.175 -0.846902
0.185 -0.868339
0.195 -0.88764
0.205 -0.904928
0.215 -0.92032
0.225 -0.933926
0.235 -0.945849
0.245 -0.956186
0.255 -0.965024
0.265 -0.972449
0.275 -0.978538
0.285 -0.983364
0.295 -0.986994
0.305 -0.989492
0.315 -0.990916
0.325 -0.991322
0.335 -0.990761
0.345 -0.989282
0.355 -0.986929
0.365 -0.983744
0.375 -0.979768
0.385 -0.975037
0.395 -0.969587
0.405 -0.96345
0.415 -0.956658
0.425 -0.94924
0.435 -0.941223
0.445 -0.932634
0.455 -0.923498
0.465 -0.913837
0.475 -0.903675
0.485 -0.893032
0.495 -0.881928
0.505 -0.870382
0.515 -0.858413
0.525 -0.846038
0.535 -0.833274
0.545 -0.820135
0.555 -0.806638
0.565 -0.792796
0.575 -0.778624
0.585 -0.764135
0.595 -0.749341
0.605 -0.734254
0.615 -0.718887
0.625 -0.70325
0.635 -0.687355
0.645 -0.671212
0.655 -0.654831
0.665 -0.638221
0.675 -0.621393
0.685 -0.604356
0.695 -0.587117
0.705 -0.569686
0.715 -0.552071
0.725 -0.534281
0.735 -0.516322
0.745 -0.498203
0.755 -0.479931
0.765 -0.461513
0.775 -0.442957
0.785 -0.424268
0.795 -0.405455
0.805 -0.386523
0.815 -0.367479
0.825 -0.348329
0.835 -0.32908
0.845 -0.309738
0.855 -0.290308
0.865 -0.270796
0.875 -0.251209
0.885 -0.231552
0.895 -0.21183
0.905 -0.19205
0.915 -0.172216
0.925 -0.152335
0.935 -0.132411
0.945 -0.11245
0.955 -0.0924574
0.965 -0.0724385
0.975 -0.0523984
0.985 -0.0323426
0.995 -0.012276
