Title="tecplot dataformat1823"
Variables="x","u"
Zone I=200 F=POINT
-0.995 0.00011774
-0.985 0.00478559
-0.975 0.00945349
-0.965 0.0141214
-0.955 0.0187894
-0.945 0.0234573
-0.935 0.0281253
-0.925 0.0327932
-0.915 0.0374611
-0.905 0.0421289
-0.895 0.0467966
-0.885 0.0514643
-0.875 0.0561318
-0.865 0.0607993
-0.855 0.0654666
-0.845 0.0701337
-0.835 0.0748007
-0.825 0.0794674
-0.815 0.084134
-0.805 0.0888004
-0.795 0.0934665
-0.785 0.0981324
-0.775 0.102798
-0.765 0.107463
-0.755 0.112128
-0.745 0.116793
-0.735 0.121458
-0.725 0.126122
-0.715 0.130785
-0.705 0.135449
-0.695 0.140112
-0.685 0.144774
-0.675 0.149436
-0.665 0.154098
-0.655 0.158759
-0.645 0.16342
-0.635 0.16808
-0.625 0.17274
-0.615 0.177399
-0.605 0.182057
-0.595 0.186715
-0.585 0.191373
-0.575 0.19603
-0.565 0.200686
-0.555 0.205342
-0.545 0.209997
-0.535 0.214651
-0.525 0.219305
-0.515 0.223958
-0.505 0.22861
-0.495 0.233261
-0.485 0.237912
-0.475 0.242562
-0.465 0.247211
-0.455 0.251859
-0.445 0.256507
-0.435 0.261154
-0.425 0.265799
-0.415 0.270444
-0.405 0.275088
-0.395 0.279731
-0.385 0.284373
-0.375 0.289014
-0.365 0.293654
-0.355 0.298294
-0.345 0.302932
-0.335 0.307569
-0.325 0.312205
-0.315 0.316839
-0.305 0.321473
-0.295 0.326106
-0.285 0.330737
-0.275 0.335367
-0.265 0.339996
-0.255 0.344624
-0.245 0.34925
-0.235 0.353876
-0.225 0.358499
-0.215 0.363122
-0.205 0.367743
-0.195 0.372363
-0.185 0.376982
-0.175 0.381598
-0.165 0.386214
-0.155 0.390828
-0.145 0.395442
-0.135 0.40005
-0.125 0.404664
-0.115 0.409265
-0.105 0.413882
-0.095 0.418469
-0.085 0.423101
-0.075 0.427657
-0.065 0.432331
-0.055 0.436819
-0.045 0.441601
-0.035 0.445942
-0.025 0.451004
-0.015 0.454455
-0.005 0.395075
0.005 -0.0117912
0.015 -0.429094
0.025 -0.454246
0.035 -0.449705
0.045 -0.44513
0.055 -0.440553
0.065 -0.435973
0.075 -0.431392
0.085 -0.426809
0.095 -0.422223
0.105 -0.417636
0.115 -0.413046
0.125 -0.408455
0.135 -0.403862
0.145 -0.399267
0.155 -0.39467
0.165 -0.390072
0.175 -0.385472
0.185 -0.38087
0.195 -0.376266
0.205 -0.37166
0.215 -0.367053
0.225 -0.362445
0.235 -0.357835
0.245 -0.353223
0.255 -0.348609
0.265 -0.343995
0.275 -0.339378
0.285 -0.334761
0.295 -0.330142
0.305 -0.325521
0.315 -0.320899
0.325 -0.316276
0.335 -0.311651
0.345 -0.307026
0.355 -0.302398
0.365 -0.29777
0.375 -0.29314
0.385 -0.28851
0.395 -0.283878
0.405 -0.279245
0.415 -0.27461
0.425 -0.269975
0.435 -0.265338
0.445 -0.260701
0.455 -0.256062
0.465 -0.251423
0.475 -0.246782
0.485 -0.24214
0.495 -0.237498
0.505 -0.232854
0.515 -0.22821
0.525 -0.223565
0.535 -0.218918
0.545 -0.214271
0.555 -0.209623
0.565 -0.204975
0.575 -0.200325
0.585 -0.195675
0.595 -0.191024
0.605 -0.186372
0.615 -0.181719
0.625 -0.177066
0.635 -0.172412
0.645 -0.167757
0.655 -0.163102
0.665 -0.158446
0.675 -0.153789
0.685 -0.149132
0.695 -0.144474
0.705 -0.139816
0.715 -0.135157
0.725 -0.130497
0.735 -0.125837
0.745 -0.121177
0.755 -0.116516
0.765 -0.111855
0.775 -0.107193
0.785 -0.10253
0.795 -0.0978676
0.805 -0.0932044
0.815 -0.0885409
0.825 -0.083877
0.835 -0.0792128
0.845 -0.0745482
0.855 -0.0698833
0.865 -0.0652181
0.875 -0.0605526
0.885 -0.0558868
0.895 -0.0512208
0.905 -0.0465545
0.915 -0.0418881
0.925 -0.0372214
0.935 -0.0325545
0.945 -0.0278874
0.955 -0.0232202
0.965 -0.0185528
0.975 -0.0138854
0.985 -0.00921775
0.995 -0.00455005
