Title="tecplot dataformat1164"
Variables="x","u"
Zone I=200 F=POINT
-0.995 0.000788573
-0.985 0.00753072
-0.975 0.014273
-0.965 0.0210153
-0.955 0.0277575
-0.945 0.0344997
-0.935 0.0412417
-0.925 0.0479835
-0.915 0.054725
-0.905 0.0614661
-0.895 0.0682068
-0.885 0.074947
-0.875 0.0816866
-0.865 0.0884255
-0.855 0.0951638
-0.845 0.101901
-0.835 0.108638
-0.825 0.115374
-0.815 0.122108
-0.805 0.128842
-0.795 0.135574
-0.785 0.142306
-0.775 0.149036
-0.765 0.155765
-0.755 0.162492
-0.745 0.169218
-0.735 0.175942
-0.725 0.182665
-0.715 0.189385
-0.705 0.196105
-0.695 0.202822
-0.685 0.209537
-0.675 0.21625
-0.665 0.222962
-0.655 0.229671
-0.645 0.236377
-0.635 0.243082
-0.625 0.249784
-0.615 0.256484
-0.605 0.263181
-0.595 0.269875
-0.585 0.276566
-0.575 0.283255
-0.565 0.289941
-0.555 0.296624
-0.545 0.303304
-0.535 0.30998
-0.525 0.316654
-0.515 0.323323
-0.505 0.32999
-0.495 0.336653
-0.485 0.343312
-0.475 0.349968
-0.465 0.356619
-0.455 0.363267
-0.445 0.369911
-0.435 0.376551
-0.425 0.383186
-0.415 0.389817
-0.405 0.396443
-0.395 0.403065
-0.385 0.409682
-0.375 0.416295
-0.365 0.422902
-0.355 0.429504
-0.345 0.436102
-0.335 0.442693
-0.325 0.44928
-0.315 0.455861
-0.305 0.462436
-0.295 0.469005
-0.285 0.475569
-0.275 0.482126
-0.265 0.488677
-0.255 0.495222
-0.245 0.50176
-0.235 0.508291
-0.225 0.514816
-0.215 0.521333
-0.205 0.527844
-0.195 0.534347
-0.185 0.540842
-0.175 0.54733
-0.165 0.55381
-0.155 0.56028
-0.145 0.566747
-0.135 0.573196
-0.125 0.579652
-0.115 0.586074
-0.105 0.592528
-0.095 0.598907
-0.085 0.605382
-0.075 0.61168
-0.065 0.61824
-0.055 0.624376
-0.045 0.63118
-0.035 0.637002
-0.025 0.644554
-0.015 0.647744
-0.005 0.530582
0.005 -0.123261
0.015 -0.62881
0.025 -0.646024
0.035 -0.639755
0.045 -0.633471
0.055 -0.627174
0.065 -0.620866
0.075 -0.614545
0.085 -0.608212
0.095 -0.601868
0.105 -0.595513
0.115 -0.589147
0.125 -0.58277
0.135 -0.576383
0.145 -0.569985
0.155 -0.563578
0.165 -0.557161
0.175 -0.550735
0.185 -0.544299
0.195 -0.537855
0.205 -0.531402
0.215 -0.52494
0.225 -0.51847
0.235 -0.511992
0.245 -0.505506
0.255 -0.499012
0.265 -0.492511
0.275 -0.486002
0.285 -0.479486
0.295 -0.472962
0.305 -0.466432
0.315 -0.459896
0.325 -0.453352
0.335 -0.446802
0.345 -0.440246
0.355 -0.433684
0.365 -0.427116
0.375 -0.420542
0.385 -0.413962
0.395 -0.407376
0.405 -0.400785
0.415 -0.394189
0.425 -0.387588
0.435 -0.380981
0.445 -0.37437
0.455 -0.367754
0.465 -0.361133
0.475 -0.354507
0.485 -0.347877
0.495 -0.341242
0.505 -0.334604
0.515 -0.327961
0.525 -0.321314
0.535 -0.314663
0.545 -0.308008
0.555 -0.301349
0.565 -0.294687
0.575 -0.288021
0.585 -0.281352
0.595 -0.274679
0.605 -0.268003
0.615 -0.261324
0.625 -0.254642
0.635 -0.247956
0.645 -0.241268
0.655 -0.234577
0.665 -0.227883
0.675 -0.221187
0.685 -0.214488
0.695 -0.207786
0.705 -0.201082
0.715 -0.194376
0.725 -0.187667
0.735 -0.180956
0.745 -0.174243
0.755 -0.167529
0.765 -0.160812
0.775 -0.154093
0.785 -0.147372
0.795 -0.14065
0.805 -0.133926
0.815 -0.127201
0.825 -0.120474
0.835 -0.113745
0.845 -0.107015
0.855 -0.100284
0.865 -0.0935519
0.875 -0.0868185
0.885 -0.0800839
0.895 -0.0733484
0.905 -0.066612
0.915 -0.0598747
0.925 -0.0531365
0.935 -0.0463977
0.945 -0.0396582
0.955 -0.0329182
0.965 -0.0261776
0.975 -0.0194365
0.985 -0.0126951
0.995 -0.0059534
