Title="tecplot dataformat1409"
Variables="x","u"
Zone I=200 F=POINT
-0.995 0.000456092
-0.985 0.00624226
-0.975 0.0120285
-0.965 0.0178148
-0.955 0.0236011
-0.945 0.0293874
-0.935 0.0351736
-0.925 0.0409597
-0.915 0.0467456
-0.905 0.0525314
-0.895 0.058317
-0.885 0.0641023
-0.875 0.0698874
-0.865 0.0756721
-0.855 0.0814564
-0.845 0.0872404
-0.835 0.0930239
-0.825 0.0988069
-0.815 0.104589
-0.805 0.110371
-0.795 0.116153
-0.785 0.121934
-0.775 0.127714
-0.765 0.133493
-0.755 0.139272
-0.745 0.14505
-0.735 0.150827
-0.725 0.156603
-0.715 0.162378
-0.705 0.168152
-0.695 0.173926
-0.685 0.179698
-0.675 0.185469
-0.665 0.19124
-0.655 0.197009
-0.645 0.202777
-0.635 0.208543
-0.625 0.214309
-0.615 0.220073
-0.605 0.225836
-0.595 0.231597
-0.585 0.237357
-0.575 0.243115
-0.565 0.248872
-0.555 0.254628
-0.545 0.260381
-0.535 0.266133
-0.525 0.271884
-0.515 0.277632
-0.505 0.283379
-0.495 0.289124
-0.485 0.294867
-0.475 0.300608
-0.465 0.306348
-0.455 0.312085
-0.445 0.31782
-0.435 0.323553
-0.425 0.329283
-0.415 0.335012
-0.405 0.340738
-0.395 0.346462
-0.385 0.352183
-0.375 0.357902
-0.365 0.363619
-0.355 0.369332
-0.345 0.375044
-0.335 0.380752
-0.325 0.386458
-0.315 0.392161
-0.305 0.397861
-0.295 0.403558
-0.285 0.409252
-0.275 0.414944
-0.265 0.420632
-0.255 0.426316
-0.245 0.431998
-0.235 0.437676
-0.225 0.443351
-0.215 0.449022
-0.205 0.45469
-0.195 0.460354
-0.185 0.466015
-0.175 0.471672
-0.165 0.477325
-0.155 0.482973
-0.145 0.48862
-0.135 0.494257
-0.125 0.499901
-0.115 0.505522
-0.105 0.511168
-0.095 0.516763
-0.085 0.52243
-0.075 0.527971
-0.065 0.533703
-0.055 0.539131
-0.045 0.54504
-0.035 0.550237
-0.025 0.556644
-0.015 0.56017
-0.005 0.471847
0.005 -0.0661262
0.015 -0.537957
0.025 -0.55924
0.035 -0.553705
0.045 -0.548151
0.055 -0.542591
0.065 -0.537026
0.075 -0.531455
0.085 -0.525878
0.095 -0.520296
0.105 -0.514709
0.115 -0.509116
0.125 -0.503518
0.135 -0.497916
0.145 -0.492308
0.155 -0.486696
0.165 -0.481079
0.175 -0.475457
0.185 -0.469831
0.195 -0.464201
0.205 -0.458566
0.215 -0.452927
0.225 -0.447284
0.235 -0.441637
0.245 -0.435985
0.255 -0.43033
0.265 -0.424672
0.275 -0.419009
0.285 -0.413343
0.295 -0.407673
0.305 -0.402
0.315 -0.396323
0.325 -0.390643
0.335 -0.384959
0.345 -0.379273
0.355 -0.373583
0.365 -0.36789
0.375 -0.362194
0.385 -0.356495
0.395 -0.350794
0.405 -0.345089
0.415 -0.339382
0.425 -0.333672
0.435 -0.327959
0.445 -0.322244
0.455 -0.316526
0.465 -0.310805
0.475 -0.305083
0.485 -0.299357
0.495 -0.29363
0.505 -0.2879
0.515 -0.282168
0.525 -0.276434
0.535 -0.270698
0.545 -0.264959
0.555 -0.259219
0.565 -0.253477
0.575 -0.247733
0.585 -0.241987
0.595 -0.236239
0.605 -0.230489
0.615 -0.224738
0.625 -0.218985
0.635 -0.21323
0.645 -0.207474
0.655 -0.201716
0.665 -0.195957
0.675 -0.190196
0.685 -0.184434
0.695 -0.17867
0.705 -0.172905
0.715 -0.167139
0.725 -0.161372
0.735 -0.155603
0.745 -0.149833
0.755 -0.144063
0.765 -0.138291
0.775 -0.132518
0.785 -0.126744
0.795 -0.120969
0.805 -0.115193
0.815 -0.109416
0.825 -0.103639
0.835 -0.0978604
0.845 -0.0920813
0.855 -0.0863015
0.865 -0.080521
0.875 -0.0747398
0.885 -0.0689581
0.895 -0.0631758
0.905 -0.057393
0.915 -0.0516097
0.925 -0.0458259
0.935 -0.0400417
0.945 -0.0342571
0.955 -0.0284722
0.965 -0.022687
0.975 -0.0169016
0.985 -0.0111159
0.995 -0.00532996
