Title="tecplot dataformat1018"
Variables="x","u"
Zone I=200 F=POINT
-0.995 0.00106794
-0.985 0.00854646
-0.975 0.0160251
-0.965 0.0235038
-0.955 0.0309824
-0.945 0.0384608
-0.935 0.0459389
-0.925 0.0534167
-0.915 0.0608939
-0.905 0.0683706
-0.895 0.0758465
-0.885 0.0833217
-0.875 0.090796
-0.865 0.0982692
-0.855 0.105741
-0.845 0.113212
-0.835 0.120682
-0.825 0.12815
-0.815 0.135617
-0.805 0.143082
-0.795 0.150545
-0.785 0.158006
-0.775 0.165466
-0.765 0.172923
-0.755 0.180378
-0.745 0.187831
-0.735 0.195281
-0.725 0.202729
-0.715 0.210174
-0.705 0.217617
-0.695 0.225056
-0.685 0.232493
-0.675 0.239926
-0.665 0.247357
-0.655 0.254784
-0.645 0.262207
-0.635 0.269627
-0.625 0.277043
-0.615 0.284455
-0.605 0.291863
-0.595 0.299267
-0.585 0.306667
-0.575 0.314063
-0.565 0.321453
-0.555 0.32884
-0.545 0.336221
-0.535 0.343597
-0.525 0.350969
-0.515 0.358335
-0.505 0.365696
-0.495 0.373051
-0.485 0.3804
-0.475 0.387744
-0.465 0.395081
-0.455 0.402413
-0.445 0.409737
-0.435 0.417056
-0.425 0.424368
-0.415 0.431672
-0.405 0.43897
-0.395 0.44626
-0.385 0.453543
-0.375 0.460819
-0.365 0.468086
-0.355 0.475346
-0.345 0.482597
-0.335 0.489839
-0.325 0.497073
-0.315 0.504298
-0.305 0.511514
-0.295 0.518721
-0.285 0.525918
-0.275 0.533105
-0.265 0.540282
-0.255 0.547448
-0.245 0.554604
-0.235 0.561749
-0.225 0.568883
-0.215 0.576005
-0.205 0.583115
-0.195 0.590213
-0.185 0.597299
-0.175 0.604371
-0.165 0.611433
-0.155 0.618477
-0.145 0.625513
-0.135 0.632525
-0.125 0.63954
-0.115 0.64651
-0.105 0.653514
-0.095 0.660422
-0.085 0.667445
-0.075 0.674245
-0.065 0.681363
-0.055 0.687956
-0.045 0.695366
-0.035 0.701576
-0.025 0.709974
-0.015 0.712572
-0.005 0.570523
0.005 -0.173807
0.015 -0.696332
0.025 -0.71013
0.035 -0.70341
0.045 -0.696671
0.055 -0.689911
0.065 -0.683128
0.075 -0.676325
0.085 -0.669502
0.095 -0.662658
0.105 -0.655796
0.115 -0.648915
0.125 -0.642016
0.135 -0.6351
0.145 -0.628166
0.155 -0.621216
0.165 -0.61425
0.175 -0.607268
0.185 -0.600271
0.195 -0.593259
0.205 -0.586233
0.215 -0.579193
0.225 -0.572139
0.235 -0.565071
0.245 -0.557991
0.255 -0.550899
0.265 -0.543794
0.275 -0.536677
0.285 -0.529548
0.295 -0.522408
0.305 -0.515257
0.315 -0.508095
0.325 -0.500923
0.335 -0.49374
0.345 -0.486547
0.355 -0.479345
0.365 -0.472133
0.375 -0.464912
0.385 -0.457682
0.395 -0.450443
0.405 -0.443195
0.415 -0.43594
0.425 -0.428676
0.435 -0.421404
0.445 -0.414124
0.455 -0.406837
0.465 -0.399542
0.475 -0.392241
0.485 -0.384932
0.495 -0.377616
0.505 -0.370294
0.515 -0.362966
0.525 -0.355631
0.535 -0.34829
0.545 -0.340943
0.555 -0.333591
0.565 -0.326232
0.575 -0.318869
0.585 -0.3115
0.595 -0.304125
0.605 -0.296746
0.615 -0.289362
0.625 -0.281973
0.635 -0.27458
0.645 -0.267182
0.655 -0.25978
0.665 -0.252373
0.675 -0.244963
0.685 -0.237549
0.695 -0.23013
0.705 -0.222709
0.715 -0.215283
0.725 -0.207855
0.735 -0.200423
0.745 -0.192987
0.755 -0.185549
0.765 -0.178108
0.775 -0.170664
0.785 -0.163217
0.795 -0.155768
0.805 -0.148316
0.815 -0.140862
0.825 -0.133406
0.835 -0.125947
0.845 -0.118487
0.855 -0.111025
0.865 -0.10356
0.875 -0.0960945
0.885 -0.088627
0.895 -0.081158
0.905 -0.0736877
0.915 -0.0662161
0.925 -0.0587434
0.935 -0.0512696
0.945 -0.0437948
0.955 -0.0363192
0.965 -0.0288428
0.975 -0.0213659
0.985 -0.0138883
0.995 -0.00641036
