Title="tecplot dataformat2396"
Variables="x","u"
Zone I=200 F=POINT
-0.995 -0.000125095
-0.985 0.00355767
-0.975 0.00724046
-0.965 0.0109233
-0.955 0.0146061
-0.945 0.0182889
-0.935 0.0219718
-0.925 0.0256546
-0.915 0.0293374
-0.905 0.0330203
-0.895 0.0367031
-0.885 0.0403858
-0.875 0.0440686
-0.865 0.0477513
-0.855 0.0514339
-0.845 0.0551165
-0.835 0.0587991
-0.825 0.0624816
-0.815 0.066164
-0.805 0.0698463
-0.795 0.0735286
-0.785 0.0772107
-0.775 0.0808928
-0.765 0.0845748
-0.755 0.0882567
-0.745 0.0919384
-0.735 0.0956201
-0.725 0.0993016
-0.715 0.102983
-0.705 0.106664
-0.695 0.110345
-0.685 0.114026
-0.675 0.117707
-0.665 0.121388
-0.655 0.125068
-0.645 0.128748
-0.635 0.132429
-0.625 0.136109
-0.615 0.139788
-0.605 0.143468
-0.595 0.147147
-0.585 0.150826
-0.575 0.154505
-0.565 0.158184
-0.555 0.161862
-0.545 0.16554
-0.535 0.169218
-0.525 0.172896
-0.515 0.176574
-0.505 0.180251
-0.495 0.183928
-0.485 0.187604
-0.475 0.191281
-0.465 0.194957
-0.455 0.198632
-0.445 0.202308
-0.435 0.205983
-0.425 0.209658
-0.415 0.213332
-0.405 0.217006
-0.395 0.22068
-0.385 0.224354
-0.375 0.228027
-0.365 0.2317
-0.355 0.235372
-0.345 0.239044
-0.335 0.242716
-0.325 0.246387
-0.315 0.250058
-0.305 0.253728
-0.295 0.257398
-0.285 0.261068
-0.275 0.264737
-0.265 0.268406
-0.255 0.272074
-0.245 0.275742
-0.235 0.279409
-0.225 0.283076
-0.215 0.286742
-0.205 0.290408
-0.195 0.294074
-0.185 0.297739
-0.175 0.301403
-0.165 0.305067
-0.155 0.30873
-0.145 0.312394
-0.135 0.316055
-0.125 0.319719
-0.115 0.323376
-0.105 0.327043
-0.095 0.330693
-0.085 0.334369
-0.075 0.338002
-0.065 0.341702
-0.055 0.345297
-0.045 0.349057
-0.035 0.352568
-0.025 0.356473
-0.015 0.359539
-0.005 0.321407
0.005 0.0243142
0.015 -0.33237
0.025 -0.359795
0.035 -0.356201
0.045 -0.352552
0.055 -0.348903
0.065 -0.345254
0.075 -0.341604
0.085 -0.337953
0.095 -0.334302
0.105 -0.33065
0.115 -0.326997
0.125 -0.323343
0.135 -0.319689
0.145 -0.316034
0.155 -0.312378
0.165 -0.308722
0.175 -0.305065
0.185 -0.301408
0.195 -0.29775
0.205 -0.294091
0.215 -0.290432
0.225 -0.286772
0.235 -0.283112
0.245 -0.279451
0.255 -0.275789
0.265 -0.272127
0.275 -0.268464
0.285 -0.264801
0.295 -0.261137
0.305 -0.257473
0.315 -0.253808
0.325 -0.250143
0.335 -0.246477
0.345 -0.242811
0.355 -0.239144
0.365 -0.235477
0.375 -0.231809
0.385 -0.228141
0.395 -0.224472
0.405 -0.220803
0.415 -0.217134
0.425 -0.213464
0.435 -0.209794
0.445 -0.206123
0.455 -0.202452
0.465 -0.19878
0.475 -0.195108
0.485 -0.191436
0.495 -0.187764
0.505 -0.184091
0.515 -0.180417
0.525 -0.176743
0.535 -0.173069
0.545 -0.169395
0.555 -0.16572
0.565 -0.162045
0.575 -0.15837
0.585 -0.154694
0.595 -0.151018
0.605 -0.147342
0.615 -0.143665
0.625 -0.139989
0.635 -0.136311
0.645 -0.132634
0.655 -0.128956
0.665 -0.125279
0.675 -0.1216
0.685 -0.117922
0.695 -0.114243
0.705 -0.110565
0.715 -0.106885
0.725 -0.103206
0.735 -0.0995267
0.745 -0.0958471
0.755 -0.0921672
0.765 -0.0884871
0.775 -0.0848069
0.785 -0.0811264
0.795 -0.0774458
0.805 -0.0737651
0.815 -0.0700841
0.825 -0.0664031
0.835 -0.0627219
0.845 -0.0590405
0.855 -0.055359
0.865 -0.0516774
0.875 -0.0479957
0.885 -0.0443138
0.895 -0.0406319
0.905 -0.0369498
0.915 -0.0332677
0.925 -0.0295855
0.935 -0.0259031
0.945 -0.0222207
0.955 -0.0185383
0.965 -0.0148557
0.975 -0.0111732
0.985 -0.00749051
0.995 -0.00380782
