Title="tecplot dataformat2492"
Variables="x","u"
Zone I=200 F=POINT
-0.995 -0.000151694
-0.985 0.00340531
-0.975 0.00696233
-0.965 0.0105194
-0.955 0.0140764
-0.945 0.0176335
-0.935 0.0211906
-0.925 0.0247477
-0.915 0.0283047
-0.905 0.0318618
-0.895 0.0354188
-0.885 0.0389758
-0.875 0.0425328
-0.865 0.0460898
-0.855 0.0496467
-0.845 0.0532036
-0.835 0.0567604
-0.825 0.0603172
-0.815 0.0638739
-0.805 0.0674306
-0.795 0.0709872
-0.785 0.0745437
-0.775 0.0781001
-0.765 0.0816564
-0.755 0.0852127
-0.745 0.0887689
-0.735 0.0923249
-0.725 0.0958809
-0.715 0.0994367
-0.705 0.102992
-0.695 0.106548
-0.685 0.110103
-0.675 0.113659
-0.665 0.117214
-0.655 0.120769
-0.645 0.124324
-0.635 0.127879
-0.625 0.131433
-0.615 0.134988
-0.605 0.138542
-0.595 0.142096
-0.585 0.14565
-0.575 0.149204
-0.565 0.152757
-0.555 0.15631
-0.545 0.159863
-0.535 0.163416
-0.525 0.166969
-0.515 0.170521
-0.505 0.174074
-0.495 0.177626
-0.485 0.181177
-0.475 0.184729
-0.465 0.18828
-0.455 0.191831
-0.445 0.195382
-0.435 0.198932
-0.425 0.202482
-0.415 0.206032
-0.405 0.209582
-0.395 0.213131
-0.385 0.21668
-0.375 0.220229
-0.365 0.223777
-0.355 0.227325
-0.345 0.230873
-0.335 0.23442
-0.325 0.237967
-0.315 0.241514
-0.305 0.245061
-0.295 0.248607
-0.285 0.252152
-0.275 0.255698
-0.265 0.259242
-0.255 0.262787
-0.245 0.266331
-0.235 0.269875
-0.225 0.273418
-0.215 0.276961
-0.205 0.280504
-0.195 0.284046
-0.185 0.287587
-0.175 0.291128
-0.165 0.29467
-0.155 0.298209
-0.145 0.30175
-0.135 0.305288
-0.125 0.308829
-0.115 0.312364
-0.105 0.315908
-0.095 0.319436
-0.085 0.322988
-0.075 0.326501
-0.065 0.330075
-0.055 0.333553
-0.045 0.337182
-0.035 0.340582
-0.025 0.344343
-0.015 0.347342
-0.005 0.311631
0.005 0.0280787
0.015 -0.320026
0.025 -0.347645
0.035 -0.344175
0.045 -0.340648
0.055 -0.337121
0.065 -0.333593
0.075 -0.330064
0.085 -0.326535
0.095 -0.323005
0.105 -0.319475
0.115 -0.315944
0.125 -0.312412
0.135 -0.30888
0.145 -0.305347
0.155 -0.301814
0.165 -0.29828
0.175 -0.294746
0.185 -0.291211
0.195 -0.287675
0.205 -0.284139
0.215 -0.280602
0.225 -0.277065
0.235 -0.273528
0.245 -0.26999
0.255 -0.266451
0.265 -0.262912
0.275 -0.259373
0.285 -0.255833
0.295 -0.252292
0.305 -0.248751
0.315 -0.24521
0.325 -0.241668
0.335 -0.238126
0.345 -0.234584
0.355 -0.231041
0.365 -0.227497
0.375 -0.223953
0.385 -0.220409
0.395 -0.216865
0.405 -0.21332
0.415 -0.209774
0.425 -0.206228
0.435 -0.202682
0.445 -0.199136
0.455 -0.195589
0.465 -0.192042
0.475 -0.188494
0.485 -0.184947
0.495 -0.181398
0.505 -0.17785
0.515 -0.174301
0.525 -0.170752
0.535 -0.167203
0.545 -0.163653
0.555 -0.160103
0.565 -0.156553
0.575 -0.153002
0.585 -0.149452
0.595 -0.145901
0.605 -0.142349
0.615 -0.138798
0.625 -0.135246
0.635 -0.131694
0.645 -0.128142
0.655 -0.124589
0.665 -0.121036
0.675 -0.117483
0.685 -0.11393
0.695 -0.110377
0.705 -0.106823
0.715 -0.10327
0.725 -0.0997157
0.735 -0.0961616
0.745 -0.0926073
0.755 -0.0890528
0.765 -0.0854982
0.775 -0.0819434
0.785 -0.0783885
0.795 -0.0748334
0.805 -0.0712781
0.815 -0.0677228
0.825 -0.0641673
0.835 -0.0606116
0.845 -0.0570559
0.855 -0.0535
0.865 -0.049944
0.875 -0.046388
0.885 -0.0428318
0.895 -0.0392755
0.905 -0.0357191
0.915 -0.0321627
0.925 -0.0286061
0.935 -0.0250495
0.945 -0.0214929
0.955 -0.0179361
0.965 -0.0143793
0.975 -0.0108225
0.985 -0.0072656
0.995 -0.00370866
