Title="tecplot dataformat265"
Variables="x","u"
Zone I=200 F=POINT
-0.995 0.00598397
-0.985 0.0231242
-0.975 0.0402625
-0.965 0.0573959
-0.955 0.0745216
-0.945 0.0916369
-0.935 0.108739
-0.925 0.125825
-0.915 0.142892
-0.905 0.159937
-0.895 0.176958
-0.885 0.19395
-0.875 0.210913
-0.865 0.227841
-0.855 0.244733
-0.845 0.261585
-0.835 0.278395
-0.825 0.295158
-0.815 0.311872
-0.805 0.328534
-0.795 0.34514
-0.785 0.361687
-0.775 0.378171
-0.765 0.394589
-0.755 0.410937
-0.745 0.427211
-0.735 0.443408
-0.725 0.459523
-0.715 0.475554
-0.705 0.491494
-0.695 0.507341
-0.685 0.52309
-0.675 0.538736
-0.665 0.554275
-0.655 0.569702
-0.645 0.585012
-0.635 0.600199
-0.625 0.615259
-0.615 0.630186
-0.605 0.644973
-0.595 0.659616
-0.585 0.674107
-0.575 0.688441
-0.565 0.70261
-0.555 0.716607
-0.545 0.730426
-0.535 0.744058
-0.525 0.757494
-0.515 0.770728
-0.505 0.783748
-0.495 0.796547
-0.485 0.809114
-0.475 0.821439
-0.465 0.83351
-0.455 0.845316
-0.445 0.856844
-0.435 0.868081
-0.425 0.879014
-0.415 0.889626
-0.405 0.899903
-0.395 0.909827
-0.385 0.91938
-0.375 0.928542
-0.365 0.937292
-0.355 0.945608
-0.345 0.953466
-0.335 0.960838
-0.325 0.967696
-0.315 0.974009
-0.305 0.979743
-0.295 0.984861
-0.285 0.98932
-0.275 0.993077
-0.265 0.996082
-0.255 0.998279
-0.245 0.999605
-0.235 0.999993
-0.225 0.999364
-0.215 0.997632
-0.205 0.994695
-0.195 0.990438
-0.185 0.984728
-0.175 0.977412
-0.165 0.968309
-0.155 0.957204
-0.145 0.943842
-0.135 0.927911
-0.125 0.909029
-0.115 0.886717
-0.105 0.860368
-0.095 0.829189
-0.085 0.792132
-0.075 0.747763
-0.065 0.694091
-0.055 0.628325
-0.045 0.546711
-0.035 0.444955
-0.025 0.320388
-0.015 0.175924
-0.005 0.0219091
0.005 -0.12794
0.015 -0.263146
0.025 -0.379411
0.035 -0.477138
0.045 -0.558773
0.055 -0.627112
0.065 -0.68463
0.075 -0.733332
0.085 -0.774795
0.095 -0.810245
0.105 -0.840644
0.115 -0.866748
0.125 -0.889164
0.135 -0.908379
0.145 -0.924793
0.155 -0.938735
0.165 -0.95048
0.175 -0.960261
0.185 -0.968273
0.195 -0.974686
0.205 -0.979646
0.215 -0.983279
0.225 -0.985696
0.235 -0.986995
0.245 -0.987261
0.255 -0.986571
0.265 -0.984994
0.275 -0.982591
0.285 -0.979418
0.295 -0.975524
0.305 -0.970955
0.315 -0.965752
0.325 -0.959953
0.335 -0.953592
0.345 -0.946701
0.355 -0.93931
0.365 -0.931444
0.375 -0.92313
0.385 -0.91439
0.395 -0.905246
0.405 -0.895718
0.415 -0.885824
0.425 -0.875582
0.435 -0.865008
0.445 -0.854118
0.455 -0.842926
0.465 -0.831446
0.475 -0.81969
0.485 -0.80767
0.495 -0.795398
0.505 -0.782885
0.515 -0.770141
0.525 -0.757175
0.535 -0.743997
0.545 -0.730616
0.555 -0.71704
0.565 -0.703277
0.575 -0.689335
0.585 -0.67522
0.595 -0.660941
0.605 -0.646503
0.615 -0.631913
0.625 -0.617177
0.635 -0.602302
0.645 -0.587293
0.655 -0.572154
0.665 -0.556893
0.675 -0.541513
0.685 -0.52602
0.695 -0.510419
0.705 -0.494713
0.715 -0.478909
0.725 -0.463009
0.735 -0.447018
0.745 -0.430941
0.755 -0.414781
0.765 -0.398543
0.775 -0.382229
0.785 -0.365845
0.795 -0.349392
0.805 -0.332875
0.815 -0.316298
0.825 -0.299664
0.835 -0.282975
0.845 -0.266236
0.855 -0.24945
0.865 -0.232619
0.875 -0.215747
0.885 -0.198837
0.895 -0.181892
0.905 -0.164915
0.915 -0.147909
0.925 -0.130876
0.935 -0.11382
0.945 -0.0967442
0.955 -0.0796503
0.965 -0.0625417
0.975 -0.0454212
0.985 -0.0282915
0.995 -0.0111556
