Title="tecplot dataformat283"
Variables="x","u"
Zone I=200 F=POINT
-0.995 0.00567862
-0.985 0.0223048
-0.975 0.0389293
-0.965 0.0555497
-0.955 0.0721634
-0.945 0.088768
-0.935 0.105361
-0.925 0.12194
-0.915 0.138502
-0.905 0.155045
-0.895 0.171566
-0.885 0.188063
-0.875 0.204533
-0.865 0.220973
-0.855 0.237381
-0.845 0.253754
-0.835 0.270089
-0.825 0.286383
-0.815 0.302634
-0.805 0.318839
-0.795 0.334995
-0.785 0.351098
-0.775 0.367146
-0.765 0.383136
-0.755 0.399064
-0.745 0.414927
-0.735 0.430721
-0.725 0.446444
-0.715 0.462092
-0.705 0.477661
-0.695 0.493147
-0.685 0.508546
-0.675 0.523855
-0.665 0.53907
-0.655 0.554186
-0.645 0.569198
-0.635 0.584103
-0.625 0.598895
-0.615 0.61357
-0.605 0.628123
-0.595 0.642548
-0.585 0.656841
-0.575 0.670994
-0.565 0.685003
-0.555 0.698861
-0.545 0.712561
-0.535 0.726098
-0.525 0.739463
-0.515 0.752649
-0.505 0.765649
-0.495 0.778455
-0.485 0.791057
-0.475 0.803446
-0.465 0.815614
-0.455 0.827549
-0.445 0.839241
-0.435 0.850678
-0.425 0.861849
-0.415 0.87274
-0.405 0.883338
-0.395 0.893627
-0.385 0.903593
-0.375 0.913218
-0.365 0.922485
-0.355 0.931372
-0.345 0.939861
-0.335 0.947927
-0.325 0.955547
-0.315 0.962693
-0.305 0.969335
-0.295 0.975444
-0.285 0.980982
-0.275 0.985912
-0.265 0.99019
-0.255 0.993771
-0.245 0.9966
-0.235 0.998619
-0.225 0.99976
-0.215 0.99995
-0.205 0.999105
-0.195 0.997125
-0.185 0.993898
-0.175 0.989292
-0.165 0.983153
-0.155 0.975298
-0.145 0.965508
-0.135 0.953517
-0.125 0.938994
-0.115 0.921525
-0.105 0.900576
-0.095 0.875443
-0.085 0.845165
-0.075 0.808379
-0.065 0.763057
-0.055 0.705996
-0.045 0.631904
-0.035 0.532084
-0.025 0.395376
-0.015 0.218785
-0.005 0.0208983
0.005 -0.167488
0.015 -0.326073
0.025 -0.451806
0.035 -0.550427
0.045 -0.628653
0.055 -0.691717
0.065 -0.743334
0.075 -0.786107
0.085 -0.821883
0.095 -0.852004
0.105 -0.877461
0.115 -0.89901
0.125 -0.917236
0.135 -0.9326
0.145 -0.945474
0.155 -0.956161
0.165 -0.964909
0.175 -0.971928
0.185 -0.977393
0.195 -0.981456
0.205 -0.984244
0.215 -0.985871
0.225 -0.986432
0.235 -0.986015
0.245 -0.984694
0.255 -0.982537
0.265 -0.979603
0.275 -0.975947
0.285 -0.971616
0.295 -0.966654
0.305 -0.9611
0.315 -0.954992
0.325 -0.948361
0.335 -0.941237
0.345 -0.933649
0.355 -0.925622
0.365 -0.917178
0.375 -0.908341
0.385 -0.89913
0.395 -0.889564
0.405 -0.87966
0.415 -0.869435
0.425 -0.858904
0.435 -0.848081
0.445 -0.83698
0.455 -0.825612
0.465 -0.813991
0.475 -0.802127
0.485 -0.790031
0.495 -0.777713
0.505 -0.765182
0.515 -0.752447
0.525 -0.739517
0.535 -0.726399
0.545 -0.713103
0.555 -0.699634
0.565 -0.686
0.575 -0.672207
0.585 -0.658263
0.595 -0.644172
0.605 -0.629942
0.615 -0.615578
0.625 -0.601084
0.635 -0.586467
0.645 -0.571731
0.655 -0.556881
0.665 -0.541922
0.675 -0.526859
0.685 -0.511695
0.695 -0.496435
0.705 -0.481083
0.715 -0.465643
0.725 -0.450119
0.735 -0.434515
0.745 -0.418833
0.755 -0.403079
0.765 -0.387254
0.775 -0.371363
0.785 -0.355409
0.795 -0.339395
0.805 -0.323324
0.815 -0.307199
0.825 -0.291023
0.835 -0.274799
0.845 -0.258531
0.855 -0.24222
0.865 -0.22587
0.875 -0.209483
0.885 -0.193062
0.895 -0.176611
0.905 -0.16013
0.915 -0.143624
0.925 -0.127094
0.935 -0.110544
0.945 -0.0939755
0.955 -0.0773911
0.965 -0.0607936
0.975 -0.0441854
0.985 -0.027569
0.995 -0.0109468
