Title="tecplot dataformat2550"
Variables="x","u"
Zone I=200 F=POINT
-0.995 -0.000166405
-0.985 0.00331869
-0.975 0.00680381
-0.965 0.010289
-0.955 0.0137741
-0.945 0.0172593
-0.935 0.0207444
-0.925 0.0242296
-0.915 0.0277148
-0.905 0.0311999
-0.895 0.0346851
-0.885 0.0381702
-0.875 0.0416553
-0.865 0.0451404
-0.855 0.0486254
-0.845 0.0521104
-0.835 0.0555953
-0.825 0.0590802
-0.815 0.0625651
-0.805 0.0660499
-0.795 0.0695346
-0.785 0.0730193
-0.775 0.0765039
-0.765 0.0799884
-0.755 0.0834728
-0.745 0.0869571
-0.735 0.0904414
-0.725 0.0939255
-0.715 0.0974096
-0.705 0.100893
-0.695 0.104377
-0.685 0.107861
-0.675 0.111345
-0.665 0.114828
-0.655 0.118311
-0.645 0.121795
-0.635 0.125278
-0.625 0.128761
-0.615 0.132243
-0.605 0.135726
-0.595 0.139208
-0.585 0.14269
-0.575 0.146173
-0.565 0.149654
-0.555 0.153136
-0.545 0.156618
-0.535 0.160099
-0.525 0.16358
-0.515 0.167061
-0.505 0.170542
-0.495 0.174022
-0.485 0.177503
-0.475 0.180983
-0.465 0.184462
-0.455 0.187942
-0.445 0.191421
-0.435 0.194901
-0.425 0.198379
-0.415 0.201858
-0.405 0.205336
-0.395 0.208814
-0.385 0.212292
-0.375 0.21577
-0.365 0.219247
-0.355 0.222724
-0.345 0.2262
-0.335 0.229677
-0.325 0.233153
-0.315 0.236628
-0.305 0.240104
-0.295 0.243579
-0.285 0.247053
-0.275 0.250528
-0.265 0.254002
-0.255 0.257475
-0.245 0.260949
-0.235 0.264422
-0.225 0.267894
-0.215 0.271367
-0.205 0.274838
-0.195 0.27831
-0.185 0.281781
-0.175 0.285251
-0.165 0.288722
-0.155 0.292191
-0.145 0.295661
-0.135 0.299129
-0.125 0.3026
-0.115 0.306065
-0.105 0.309538
-0.095 0.312996
-0.085 0.316477
-0.075 0.319921
-0.065 0.323423
-0.055 0.326834
-0.045 0.330388
-0.035 0.333725
-0.025 0.337403
-0.015 0.340362
-0.005 0.306005
0.005 0.0301408
0.015 -0.312973
0.025 -0.340691
0.035 -0.337293
0.045 -0.333835
0.055 -0.330377
0.065 -0.326919
0.075 -0.32346
0.085 -0.32
0.095 -0.31654
0.105 -0.31308
0.115 -0.309619
0.125 -0.306157
0.135 -0.302695
0.145 -0.299232
0.155 -0.295769
0.165 -0.292305
0.175 -0.288841
0.185 -0.285376
0.195 -0.281911
0.205 -0.278445
0.215 -0.274979
0.225 -0.271512
0.235 -0.268045
0.245 -0.264577
0.255 -0.261109
0.265 -0.257641
0.275 -0.254172
0.285 -0.250702
0.295 -0.247232
0.305 -0.243762
0.315 -0.240292
0.325 -0.236821
0.335 -0.233349
0.345 -0.229877
0.355 -0.226405
0.365 -0.222933
0.375 -0.21946
0.385 -0.215986
0.395 -0.212513
0.405 -0.209039
0.415 -0.205564
0.425 -0.20209
0.435 -0.198615
0.445 -0.195139
0.455 -0.191664
0.465 -0.188188
0.475 -0.184711
0.485 -0.181235
0.495 -0.177758
0.505 -0.174281
0.515 -0.170803
0.525 -0.167325
0.535 -0.163847
0.545 -0.160369
0.555 -0.15689
0.565 -0.153412
0.575 -0.149932
0.585 -0.146453
0.595 -0.142974
0.605 -0.139494
0.615 -0.136014
0.625 -0.132533
0.635 -0.129053
0.645 -0.125572
0.655 -0.122091
0.665 -0.11861
0.675 -0.115129
0.685 -0.111647
0.695 -0.108166
0.705 -0.104684
0.715 -0.101202
0.725 -0.0977194
0.735 -0.0942369
0.745 -0.0907544
0.755 -0.0872716
0.765 -0.0837887
0.775 -0.0803057
0.785 -0.0768225
0.795 -0.0733392
0.805 -0.0698557
0.815 -0.0663721
0.825 -0.0628884
0.835 -0.0594046
0.845 -0.0559207
0.855 -0.0524366
0.865 -0.0489525
0.875 -0.0454682
0.885 -0.0419839
0.895 -0.0384995
0.905 -0.035015
0.915 -0.0315304
0.925 -0.0280457
0.935 -0.024561
0.945 -0.0210762
0.955 -0.0175914
0.965 -0.0141065
0.975 -0.0106215
0.985 -0.00713651
0.995 -0.00365147
