Title="tecplot dataformat2395"
Variables="x","u"
Zone I=200 F=POINT
-0.995 -0.000124802
-0.985 0.00355932
-0.975 0.00724346
-0.965 0.0109276
-0.955 0.0146118
-0.945 0.018296
-0.935 0.0219802
-0.925 0.0256644
-0.915 0.0293486
-0.905 0.0330328
-0.895 0.0367169
-0.885 0.040401
-0.875 0.0440851
-0.865 0.0477692
-0.855 0.0514532
-0.845 0.0551372
-0.835 0.0588211
-0.825 0.0625049
-0.815 0.0661887
-0.805 0.0698724
-0.795 0.073556
-0.785 0.0772395
-0.775 0.0809229
-0.765 0.0846063
-0.755 0.0882895
-0.745 0.0919726
-0.735 0.0956556
-0.725 0.0993385
-0.715 0.103021
-0.705 0.106704
-0.695 0.110386
-0.685 0.114069
-0.675 0.117751
-0.665 0.121433
-0.655 0.125115
-0.645 0.128796
-0.635 0.132478
-0.625 0.136159
-0.615 0.13984
-0.605 0.143521
-0.595 0.147202
-0.585 0.150882
-0.575 0.154562
-0.565 0.158242
-0.555 0.161922
-0.545 0.165602
-0.535 0.169281
-0.525 0.17296
-0.515 0.176639
-0.505 0.180317
-0.495 0.183996
-0.485 0.187674
-0.475 0.191351
-0.465 0.195029
-0.455 0.198706
-0.445 0.202383
-0.435 0.206059
-0.425 0.209735
-0.415 0.213411
-0.405 0.217087
-0.395 0.220762
-0.385 0.224437
-0.375 0.228111
-0.365 0.231785
-0.355 0.235459
-0.345 0.239132
-0.335 0.242805
-0.325 0.246478
-0.315 0.25015
-0.305 0.253822
-0.295 0.257493
-0.285 0.261164
-0.275 0.264834
-0.265 0.268504
-0.255 0.272174
-0.245 0.275843
-0.235 0.279512
-0.225 0.28318
-0.215 0.286848
-0.205 0.290515
-0.195 0.294182
-0.185 0.297848
-0.175 0.301514
-0.165 0.305179
-0.155 0.308844
-0.145 0.312509
-0.135 0.316171
-0.125 0.319836
-0.115 0.323495
-0.105 0.327163
-0.095 0.330815
-0.085 0.334492
-0.075 0.338126
-0.065 0.341827
-0.055 0.345424
-0.045 0.349185
-0.035 0.352697
-0.025 0.356604
-0.015 0.359671
-0.005 0.321512
0.005 0.0242725
0.015 -0.332503
0.025 -0.359925
0.035 -0.35633
0.045 -0.35268
0.055 -0.34903
0.065 -0.34538
0.075 -0.341729
0.085 -0.338076
0.095 -0.334424
0.105 -0.33077
0.115 -0.327116
0.125 -0.323461
0.135 -0.319806
0.145 -0.316149
0.155 -0.312492
0.165 -0.308835
0.175 -0.305177
0.185 -0.301518
0.195 -0.297859
0.205 -0.294199
0.215 -0.290538
0.225 -0.286877
0.235 -0.283215
0.245 -0.279553
0.255 -0.27589
0.265 -0.272226
0.275 -0.268562
0.285 -0.264898
0.295 -0.261233
0.305 -0.257567
0.315 -0.253901
0.325 -0.250234
0.335 -0.246567
0.345 -0.242899
0.355 -0.239231
0.365 -0.235563
0.375 -0.231894
0.385 -0.228224
0.395 -0.224554
0.405 -0.220884
0.415 -0.217213
0.425 -0.213542
0.435 -0.20987
0.445 -0.206198
0.455 -0.202526
0.465 -0.198853
0.475 -0.19518
0.485 -0.191506
0.495 -0.187832
0.505 -0.184158
0.515 -0.180483
0.525 -0.176808
0.535 -0.173133
0.545 -0.169457
0.555 -0.165781
0.565 -0.162104
0.575 -0.158428
0.585 -0.154751
0.595 -0.151073
0.605 -0.147396
0.615 -0.143718
0.625 -0.14004
0.635 -0.136361
0.645 -0.132683
0.655 -0.129004
0.665 -0.125324
0.675 -0.121645
0.685 -0.117965
0.695 -0.114285
0.705 -0.110605
0.715 -0.106924
0.725 -0.103244
0.735 -0.099563
0.745 -0.095882
0.755 -0.0922008
0.765 -0.0885193
0.775 -0.0848377
0.785 -0.081156
0.795 -0.077474
0.805 -0.0737919
0.815 -0.0701096
0.825 -0.0664272
0.835 -0.0627446
0.845 -0.0590619
0.855 -0.0553791
0.865 -0.0516961
0.875 -0.048013
0.885 -0.0443298
0.895 -0.0406465
0.905 -0.0369631
0.915 -0.0332796
0.925 -0.029596
0.935 -0.0259123
0.945 -0.0222286
0.955 -0.0185448
0.965 -0.0148609
0.975 -0.0111769
0.985 -0.00749293
0.995 -0.00380889
