Title="tecplot dataformat2332"
Variables="x","u"
Zone I=200 F=POINT
-0.995 -0.000105644
-0.985 0.00366602
-0.975 0.00743771
-0.965 0.0112094
-0.955 0.0149812
-0.945 0.0187529
-0.935 0.0225247
-0.925 0.0262964
-0.915 0.0300681
-0.905 0.0338398
-0.895 0.0376115
-0.885 0.0413832
-0.875 0.0451548
-0.865 0.0489264
-0.855 0.0526979
-0.845 0.0564694
-0.835 0.0602408
-0.825 0.0640122
-0.815 0.0677834
-0.805 0.0715546
-0.795 0.0753257
-0.785 0.0790967
-0.775 0.0828676
-0.765 0.0866383
-0.755 0.090409
-0.745 0.0941795
-0.735 0.0979499
-0.725 0.10172
-0.715 0.10549
-0.705 0.10926
-0.695 0.11303
-0.685 0.1168
-0.675 0.120569
-0.665 0.124339
-0.655 0.128108
-0.645 0.131877
-0.635 0.135645
-0.625 0.139414
-0.615 0.143182
-0.605 0.14695
-0.595 0.150718
-0.585 0.154486
-0.575 0.158253
-0.565 0.16202
-0.555 0.165787
-0.545 0.169554
-0.535 0.17332
-0.525 0.177086
-0.515 0.180852
-0.505 0.184617
-0.495 0.188382
-0.485 0.192147
-0.475 0.195912
-0.465 0.199676
-0.455 0.20344
-0.445 0.207203
-0.435 0.210967
-0.425 0.214729
-0.415 0.218492
-0.405 0.222254
-0.395 0.226016
-0.385 0.229777
-0.375 0.233538
-0.365 0.237299
-0.355 0.241059
-0.345 0.244819
-0.335 0.248578
-0.325 0.252337
-0.315 0.256095
-0.305 0.259853
-0.295 0.263611
-0.285 0.267368
-0.275 0.271124
-0.265 0.27488
-0.255 0.278636
-0.245 0.282391
-0.235 0.286146
-0.225 0.2899
-0.215 0.293653
-0.205 0.297406
-0.195 0.301159
-0.185 0.304911
-0.175 0.308662
-0.165 0.312413
-0.155 0.316163
-0.145 0.319913
-0.135 0.323661
-0.125 0.327412
-0.115 0.331156
-0.105 0.334909
-0.095 0.338645
-0.085 0.342408
-0.075 0.346127
-0.065 0.349915
-0.055 0.353593
-0.045 0.357445
-0.035 0.361033
-0.025 0.365042
-0.015 0.368152
-0.005 0.328268
0.005 0.0215334
0.015 -0.341099
0.025 -0.368372
0.035 -0.364691
0.045 -0.360957
0.055 -0.357223
0.065 -0.353488
0.075 -0.349753
0.085 -0.346016
0.095 -0.342279
0.105 -0.338541
0.115 -0.334802
0.125 -0.331063
0.135 -0.327322
0.145 -0.323581
0.155 -0.31984
0.165 -0.316097
0.175 -0.312354
0.185 -0.30861
0.195 -0.304866
0.205 -0.301121
0.215 -0.297375
0.225 -0.293628
0.235 -0.289881
0.245 -0.286133
0.255 -0.282385
0.265 -0.278636
0.275 -0.274886
0.285 -0.271136
0.295 -0.267385
0.305 -0.263634
0.315 -0.259882
0.325 -0.25613
0.335 -0.252377
0.345 -0.248623
0.355 -0.244869
0.365 -0.241114
0.375 -0.237359
0.385 -0.233604
0.395 -0.229847
0.405 -0.226091
0.415 -0.222334
0.425 -0.218576
0.435 -0.214818
0.445 -0.21106
0.455 -0.207301
0.465 -0.203542
0.475 -0.199782
0.485 -0.196022
0.495 -0.192261
0.505 -0.1885
0.515 -0.184739
0.525 -0.180977
0.535 -0.177215
0.545 -0.173452
0.555 -0.169689
0.565 -0.165926
0.575 -0.162163
0.585 -0.158399
0.595 -0.154635
0.605 -0.15087
0.615 -0.147105
0.625 -0.14334
0.635 -0.139574
0.645 -0.135809
0.655 -0.132043
0.665 -0.128276
0.675 -0.12451
0.685 -0.120743
0.695 -0.116976
0.705 -0.113208
0.715 -0.109441
0.725 -0.105673
0.735 -0.101905
0.745 -0.0981364
0.755 -0.0943679
0.765 -0.0905992
0.775 -0.0868302
0.785 -0.0830611
0.795 -0.0792918
0.805 -0.0755223
0.815 -0.0717527
0.825 -0.0679829
0.835 -0.0642129
0.845 -0.0604427
0.855 -0.0566725
0.865 -0.0529021
0.875 -0.0491315
0.885 -0.0453609
0.895 -0.0415901
0.905 -0.0378192
0.915 -0.0340482
0.925 -0.0302771
0.935 -0.0265059
0.945 -0.0227346
0.955 -0.0189633
0.965 -0.0151919
0.975 -0.0114204
0.985 -0.00764886
0.995 -0.00387727
