Title="tecplot dataformat2143"
Variables="x","u"
Zone I=200 F=POINT
-0.995 -3.87417e-05
-0.985 0.00402244
-0.975 0.00808365
-0.965 0.0121449
-0.955 0.0162062
-0.945 0.0202674
-0.935 0.0243287
-0.925 0.02839
-0.915 0.0324512
-0.905 0.0365124
-0.895 0.0405736
-0.885 0.0446347
-0.875 0.0486958
-0.865 0.0527568
-0.855 0.0568178
-0.845 0.0608786
-0.835 0.0649394
-0.825 0.0690001
-0.815 0.0730607
-0.805 0.0771211
-0.795 0.0811815
-0.785 0.0852416
-0.775 0.0893017
-0.765 0.0933616
-0.755 0.0974213
-0.745 0.101481
-0.735 0.10554
-0.725 0.109599
-0.715 0.113658
-0.705 0.117717
-0.695 0.121776
-0.685 0.125834
-0.675 0.129892
-0.665 0.13395
-0.655 0.138008
-0.645 0.142065
-0.635 0.146122
-0.625 0.150179
-0.615 0.154235
-0.605 0.158292
-0.595 0.162347
-0.585 0.166403
-0.575 0.170458
-0.565 0.174513
-0.555 0.178568
-0.545 0.182622
-0.535 0.186676
-0.525 0.190729
-0.515 0.194782
-0.505 0.198835
-0.495 0.202887
-0.485 0.206939
-0.475 0.21099
-0.465 0.215041
-0.455 0.219091
-0.445 0.223141
-0.435 0.227191
-0.425 0.23124
-0.415 0.235289
-0.405 0.239337
-0.395 0.243384
-0.385 0.247431
-0.375 0.251478
-0.365 0.255524
-0.355 0.259569
-0.345 0.263614
-0.335 0.267658
-0.325 0.271701
-0.315 0.275744
-0.305 0.279787
-0.295 0.283829
-0.285 0.28787
-0.275 0.29191
-0.265 0.29595
-0.255 0.299989
-0.245 0.304028
-0.235 0.308065
-0.225 0.312102
-0.215 0.316139
-0.205 0.320174
-0.195 0.324209
-0.185 0.328243
-0.175 0.332276
-0.165 0.336309
-0.155 0.34034
-0.145 0.344372
-0.135 0.3484
-0.125 0.352432
-0.115 0.356456
-0.105 0.360491
-0.095 0.364505
-0.085 0.368552
-0.075 0.372544
-0.065 0.376621
-0.055 0.380565
-0.045 0.384719
-0.035 0.388555
-0.025 0.392901
-0.015 0.396144
-0.005 0.350326
0.005 0.0118062
0.015 -0.369539
0.025 -0.396241
0.035 -0.392277
0.045 -0.388267
0.055 -0.384257
0.065 -0.380246
0.075 -0.376233
0.085 -0.37222
0.095 -0.368205
0.105 -0.364189
0.115 -0.360172
0.125 -0.356154
0.135 -0.352136
0.145 -0.348116
0.155 -0.344095
0.165 -0.340073
0.175 -0.33605
0.185 -0.332026
0.195 -0.328002
0.205 -0.323976
0.215 -0.31995
0.225 -0.315922
0.235 -0.311894
0.245 -0.307865
0.255 -0.303835
0.265 -0.299804
0.275 -0.295773
0.285 -0.29174
0.295 -0.287707
0.305 -0.283673
0.315 -0.279638
0.325 -0.275603
0.335 -0.271566
0.345 -0.267529
0.355 -0.263492
0.365 -0.259453
0.375 -0.255414
0.385 -0.251375
0.395 -0.247334
0.405 -0.243293
0.415 -0.239251
0.425 -0.235209
0.435 -0.231166
0.445 -0.227122
0.455 -0.223078
0.465 -0.219033
0.475 -0.214988
0.485 -0.210942
0.495 -0.206896
0.505 -0.202849
0.515 -0.198801
0.525 -0.194753
0.535 -0.190705
0.545 -0.186656
0.555 -0.182606
0.565 -0.178556
0.575 -0.174506
0.585 -0.170455
0.595 -0.166404
0.605 -0.162352
0.615 -0.1583
0.625 -0.154247
0.635 -0.150194
0.645 -0.146141
0.655 -0.142087
0.665 -0.138033
0.675 -0.133978
0.685 -0.129923
0.695 -0.125868
0.705 -0.121812
0.715 -0.117757
0.725 -0.1137
0.735 -0.109644
0.745 -0.105587
0.755 -0.10153
0.765 -0.0974728
0.775 -0.0934152
0.785 -0.0893573
0.795 -0.0852992
0.805 -0.0812409
0.815 -0.0771823
0.825 -0.0731236
0.835 -0.0690646
0.845 -0.0650054
0.855 -0.060946
0.865 -0.0568864
0.875 -0.0528267
0.885 -0.0487668
0.895 -0.0447068
0.905 -0.0406466
0.915 -0.0365863
0.925 -0.0325258
0.935 -0.0284652
0.945 -0.0244046
0.955 -0.0203438
0.965 -0.0162829
0.975 -0.012222
0.985 -0.00816096
0.995 -0.00409988
