Title="tecplot dataformat2024"
Variables="x","u"
Zone I=200 F=POINT
-0.995 1.20809e-05
-0.985 0.00427951
-0.975 0.00854698
-0.965 0.0128145
-0.955 0.017082
-0.945 0.0213495
-0.935 0.0256171
-0.925 0.0298846
-0.915 0.0341521
-0.905 0.0384195
-0.895 0.0426869
-0.885 0.0469542
-0.875 0.0512215
-0.865 0.0554887
-0.855 0.0597558
-0.845 0.0640228
-0.835 0.0682897
-0.825 0.0725565
-0.815 0.0768231
-0.805 0.0810896
-0.795 0.085356
-0.785 0.0896221
-0.775 0.0938881
-0.765 0.0981539
-0.755 0.102419
-0.745 0.106685
-0.735 0.11095
-0.725 0.115215
-0.715 0.11948
-0.705 0.123744
-0.695 0.128008
-0.685 0.132272
-0.675 0.136536
-0.665 0.140799
-0.655 0.145062
-0.645 0.149325
-0.635 0.153587
-0.625 0.157849
-0.615 0.16211
-0.605 0.166372
-0.595 0.170632
-0.585 0.174893
-0.575 0.179153
-0.565 0.183412
-0.555 0.187672
-0.545 0.19193
-0.535 0.196189
-0.525 0.200446
-0.515 0.204704
-0.505 0.208961
-0.495 0.213217
-0.485 0.217473
-0.475 0.221728
-0.465 0.225983
-0.455 0.230237
-0.445 0.23449
-0.435 0.238743
-0.425 0.242996
-0.415 0.247248
-0.405 0.251499
-0.395 0.255749
-0.385 0.259999
-0.375 0.264248
-0.365 0.268497
-0.355 0.272745
-0.345 0.276992
-0.335 0.281238
-0.325 0.285484
-0.315 0.289729
-0.305 0.293973
-0.295 0.298217
-0.285 0.302459
-0.275 0.306701
-0.265 0.310942
-0.255 0.315182
-0.245 0.319422
-0.235 0.32366
-0.225 0.327898
-0.215 0.332134
-0.205 0.33637
-0.195 0.340605
-0.185 0.344839
-0.175 0.349071
-0.165 0.353304
-0.155 0.357534
-0.145 0.361765
-0.135 0.365992
-0.125 0.370223
-0.115 0.374444
-0.105 0.378679
-0.095 0.382889
-0.085 0.387136
-0.075 0.391322
-0.065 0.395603
-0.055 0.399734
-0.045 0.404102
-0.035 0.408113
-0.025 0.4127
-0.015 0.416026
-0.005 0.365767
0.005 0.00426418
0.015 -0.3898
0.025 -0.416025
0.035 -0.411863
0.045 -0.407659
0.055 -0.403454
0.065 -0.399247
0.075 -0.39504
0.085 -0.390831
0.095 -0.38662
0.105 -0.382408
0.115 -0.378195
0.125 -0.373981
0.135 -0.369765
0.145 -0.365548
0.155 -0.36133
0.165 -0.357111
0.175 -0.35289
0.185 -0.348668
0.195 -0.344446
0.205 -0.340222
0.215 -0.335996
0.225 -0.33177
0.235 -0.327543
0.245 -0.323315
0.255 -0.319085
0.265 -0.314855
0.275 -0.310623
0.285 -0.306391
0.295 -0.302158
0.305 -0.297923
0.315 -0.293688
0.325 -0.289452
0.335 -0.285215
0.345 -0.280977
0.355 -0.276738
0.365 -0.272498
0.375 -0.268257
0.385 -0.264016
0.395 -0.259774
0.405 -0.255531
0.415 -0.251287
0.425 -0.247042
0.435 -0.242797
0.445 -0.238551
0.455 -0.234304
0.465 -0.230057
0.475 -0.225808
0.485 -0.221559
0.495 -0.21731
0.505 -0.21306
0.515 -0.208809
0.525 -0.204557
0.535 -0.200305
0.545 -0.196052
0.555 -0.191799
0.565 -0.187545
0.575 -0.183291
0.585 -0.179036
0.595 -0.17478
0.605 -0.170524
0.615 -0.166267
0.625 -0.16201
0.635 -0.157753
0.645 -0.153495
0.655 -0.149236
0.665 -0.144977
0.675 -0.140718
0.685 -0.136458
0.695 -0.132198
0.705 -0.127937
0.715 -0.123676
0.725 -0.119415
0.735 -0.115153
0.745 -0.110891
0.755 -0.106628
0.765 -0.102365
0.775 -0.0981023
0.785 -0.0938388
0.795 -0.0895751
0.805 -0.0853111
0.815 -0.0810468
0.825 -0.0767822
0.835 -0.0725174
0.845 -0.0682523
0.855 -0.063987
0.865 -0.0597215
0.875 -0.0554558
0.885 -0.0511899
0.895 -0.0469238
0.905 -0.0426576
0.915 -0.0383912
0.925 -0.0341246
0.935 -0.0298579
0.945 -0.025591
0.955 -0.0213241
0.965 -0.017057
0.975 -0.0127899
0.985 -0.00852261
0.995 -0.0042553
