Title="tecplot dataformat2199"
Variables="x","u"
Zone I=200 F=POINT
-0.995 -6.01818e-05
-0.985 0.00391068
-0.975 0.00788158
-0.965 0.0118525
-0.955 0.0158235
-0.945 0.0197944
-0.935 0.0237654
-0.925 0.0277363
-0.915 0.0317072
-0.905 0.0356781
-0.895 0.039649
-0.885 0.0436199
-0.875 0.0475907
-0.865 0.0515614
-0.855 0.0555321
-0.845 0.0595026
-0.835 0.0634732
-0.825 0.0674436
-0.815 0.0714139
-0.805 0.0753841
-0.795 0.0793542
-0.785 0.0833242
-0.775 0.0872941
-0.765 0.0912638
-0.755 0.0952334
-0.745 0.0992028
-0.735 0.103172
-0.725 0.107141
-0.715 0.11111
-0.705 0.115079
-0.695 0.119047
-0.685 0.123016
-0.675 0.126984
-0.665 0.130952
-0.655 0.134919
-0.645 0.138887
-0.635 0.142854
-0.625 0.146821
-0.615 0.150787
-0.605 0.154754
-0.595 0.15872
-0.585 0.162685
-0.575 0.166651
-0.565 0.170616
-0.555 0.174581
-0.545 0.178545
-0.535 0.18251
-0.525 0.186473
-0.515 0.190437
-0.505 0.1944
-0.495 0.198363
-0.485 0.202325
-0.475 0.206287
-0.465 0.210249
-0.455 0.21421
-0.445 0.21817
-0.435 0.222131
-0.425 0.226091
-0.415 0.23005
-0.405 0.234009
-0.395 0.237967
-0.385 0.241925
-0.375 0.245883
-0.365 0.24984
-0.355 0.253796
-0.345 0.257752
-0.335 0.261708
-0.325 0.265663
-0.315 0.269617
-0.305 0.273571
-0.295 0.277524
-0.285 0.281477
-0.275 0.285429
-0.265 0.28938
-0.255 0.293331
-0.245 0.297281
-0.235 0.301231
-0.225 0.30518
-0.215 0.309128
-0.205 0.313076
-0.195 0.317023
-0.185 0.320969
-0.175 0.324914
-0.165 0.32886
-0.155 0.332803
-0.145 0.336747
-0.135 0.340688
-0.125 0.344633
-0.115 0.34857
-0.105 0.352517
-0.095 0.356445
-0.085 0.360403
-0.075 0.36431
-0.065 0.368297
-0.055 0.372158
-0.045 0.376218
-0.035 0.379978
-0.025 0.384218
-0.015 0.387422
-0.005 0.343493
0.005 0.0149495
0.015 -0.360666
0.025 -0.387559
0.035 -0.383683
0.045 -0.379759
0.055 -0.375834
0.065 -0.371909
0.075 -0.367982
0.085 -0.364055
0.095 -0.360126
0.105 -0.356197
0.115 -0.352267
0.125 -0.348335
0.135 -0.344403
0.145 -0.34047
0.155 -0.336536
0.165 -0.332601
0.175 -0.328665
0.185 -0.324729
0.195 -0.320791
0.205 -0.316853
0.215 -0.312914
0.225 -0.308974
0.235 -0.305033
0.245 -0.301091
0.255 -0.297149
0.265 -0.293206
0.275 -0.289262
0.285 -0.285317
0.295 -0.281372
0.305 -0.277426
0.315 -0.273479
0.325 -0.269532
0.335 -0.265584
0.345 -0.261635
0.355 -0.257686
0.365 -0.253736
0.375 -0.249785
0.385 -0.245834
0.395 -0.241882
0.405 -0.23793
0.415 -0.233977
0.425 -0.230023
0.435 -0.226069
0.445 -0.222114
0.455 -0.218159
0.465 -0.214203
0.475 -0.210247
0.485 -0.20629
0.495 -0.202333
0.505 -0.198375
0.515 -0.194416
0.525 -0.190458
0.535 -0.186498
0.545 -0.182539
0.555 -0.178578
0.565 -0.174618
0.575 -0.170657
0.585 -0.166695
0.595 -0.162734
0.605 -0.158771
0.615 -0.154809
0.625 -0.150846
0.635 -0.146882
0.645 -0.142919
0.655 -0.138955
0.665 -0.13499
0.675 -0.131025
0.685 -0.12706
0.695 -0.123095
0.705 -0.119129
0.715 -0.115163
0.725 -0.111197
0.735 -0.107231
0.745 -0.103264
0.755 -0.0992966
0.765 -0.0953293
0.775 -0.0913618
0.785 -0.087394
0.795 -0.0834259
0.805 -0.0794577
0.815 -0.0754892
0.825 -0.0715206
0.835 -0.0675517
0.845 -0.0635827
0.855 -0.0596135
0.865 -0.0556441
0.875 -0.0516746
0.885 -0.0477049
0.895 -0.0437351
0.905 -0.0397652
0.915 -0.0357951
0.925 -0.0318249
0.935 -0.0278546
0.945 -0.0238842
0.955 -0.0199137
0.965 -0.0159431
0.975 -0.0119725
0.985 -0.00800178
0.995 -0.00403101
