Title="tecplot dataformat2175"
Variables="x","u"
Zone I=200 F=POINT
-0.995 -5.11729e-05
-0.985 0.0039579
-0.975 0.00796701
-0.965 0.0119761
-0.955 0.0159853
-0.945 0.0199945
-0.935 0.0240036
-0.925 0.0280128
-0.915 0.0320219
-0.905 0.036031
-0.895 0.0400401
-0.885 0.0440492
-0.875 0.0480582
-0.865 0.0520671
-0.855 0.0560759
-0.845 0.0600847
-0.835 0.0640934
-0.825 0.068102
-0.815 0.0721106
-0.805 0.076119
-0.795 0.0801272
-0.785 0.0841354
-0.775 0.0881434
-0.765 0.0921513
-0.755 0.096159
-0.745 0.100167
-0.735 0.104174
-0.725 0.108181
-0.715 0.112188
-0.705 0.116195
-0.695 0.120202
-0.685 0.124208
-0.675 0.128214
-0.665 0.13222
-0.655 0.136226
-0.645 0.140231
-0.635 0.144236
-0.625 0.148241
-0.615 0.152246
-0.605 0.15625
-0.595 0.160254
-0.585 0.164258
-0.575 0.168262
-0.565 0.172265
-0.555 0.176268
-0.545 0.18027
-0.535 0.184272
-0.525 0.188274
-0.515 0.192275
-0.505 0.196276
-0.495 0.200277
-0.485 0.204277
-0.475 0.208277
-0.465 0.212276
-0.455 0.216275
-0.445 0.220274
-0.435 0.224272
-0.425 0.228269
-0.415 0.232266
-0.405 0.236263
-0.395 0.240259
-0.385 0.244255
-0.375 0.24825
-0.365 0.252245
-0.355 0.256239
-0.345 0.260232
-0.335 0.264225
-0.325 0.268218
-0.315 0.27221
-0.305 0.276201
-0.295 0.280192
-0.285 0.284182
-0.275 0.288171
-0.265 0.29216
-0.255 0.296148
-0.245 0.300136
-0.235 0.304123
-0.225 0.308109
-0.215 0.312095
-0.205 0.316079
-0.195 0.320064
-0.185 0.324047
-0.175 0.32803
-0.165 0.332012
-0.155 0.335992
-0.145 0.339974
-0.135 0.343952
-0.125 0.347933
-0.115 0.351907
-0.105 0.355892
-0.095 0.359856
-0.085 0.363851
-0.075 0.367795
-0.065 0.371819
-0.055 0.375716
-0.045 0.379816
-0.035 0.383608
-0.025 0.387892
-0.015 0.391113
-0.005 0.346389
0.005 0.0136316
0.015 -0.36442
0.025 -0.391233
0.035 -0.38732
0.045 -0.38336
0.055 -0.379399
0.065 -0.375437
0.075 -0.371474
0.085 -0.36751
0.095 -0.363545
0.105 -0.359579
0.115 -0.355612
0.125 -0.351644
0.135 -0.347675
0.145 -0.343706
0.155 -0.339735
0.165 -0.335763
0.175 -0.33179
0.185 -0.327817
0.195 -0.323842
0.205 -0.319867
0.215 -0.315891
0.225 -0.311914
0.235 -0.307936
0.245 -0.303958
0.255 -0.299978
0.265 -0.295998
0.275 -0.292017
0.285 -0.288035
0.295 -0.284053
0.305 -0.280069
0.315 -0.276086
0.325 -0.272101
0.335 -0.268115
0.345 -0.264129
0.355 -0.260143
0.365 -0.256155
0.375 -0.252167
0.385 -0.248178
0.395 -0.244189
0.405 -0.240199
0.415 -0.236209
0.425 -0.232217
0.435 -0.228226
0.445 -0.224233
0.455 -0.22024
0.465 -0.216247
0.475 -0.212253
0.485 -0.208258
0.495 -0.204263
0.505 -0.200268
0.515 -0.196272
0.525 -0.192275
0.535 -0.188278
0.545 -0.184281
0.555 -0.180283
0.565 -0.176284
0.575 -0.172285
0.585 -0.168286
0.595 -0.164286
0.605 -0.160286
0.615 -0.156286
0.625 -0.152285
0.635 -0.148284
0.645 -0.144282
0.655 -0.14028
0.665 -0.136277
0.675 -0.132275
0.685 -0.128272
0.695 -0.124268
0.705 -0.120265
0.715 -0.116261
0.725 -0.112256
0.735 -0.108252
0.745 -0.104247
0.755 -0.100242
0.765 -0.0962362
0.775 -0.0922306
0.785 -0.0882247
0.795 -0.0842185
0.805 -0.0802122
0.815 -0.0762056
0.825 -0.0721988
0.835 -0.0681918
0.845 -0.0641847
0.855 -0.0601773
0.865 -0.0561698
0.875 -0.0521621
0.885 -0.0481543
0.895 -0.0441463
0.905 -0.0401381
0.915 -0.0361299
0.925 -0.0321215
0.935 -0.028113
0.945 -0.0241044
0.955 -0.0200957
0.965 -0.016087
0.975 -0.0120781
0.985 -0.00806919
0.995 -0.0040602
