Title="tecplot dataformat2222"
Variables="x","u"
Zone I=200 F=POINT
-0.995 -6.8572e-05
-0.985 0.00386635
-0.975 0.00780131
-0.965 0.0117363
-0.955 0.0156713
-0.945 0.0196063
-0.935 0.0235413
-0.925 0.0274763
-0.915 0.0314113
-0.905 0.0353463
-0.895 0.0392812
-0.885 0.0432161
-0.875 0.047151
-0.865 0.0510858
-0.855 0.0550205
-0.845 0.0589552
-0.835 0.0628898
-0.825 0.0668243
-0.815 0.0707587
-0.805 0.074693
-0.795 0.0786273
-0.785 0.0825613
-0.775 0.0864953
-0.765 0.0904291
-0.755 0.0943628
-0.745 0.0982964
-0.735 0.10223
-0.725 0.106163
-0.715 0.110096
-0.705 0.114029
-0.695 0.117962
-0.685 0.121894
-0.675 0.125826
-0.665 0.129758
-0.655 0.13369
-0.645 0.137622
-0.635 0.141553
-0.625 0.145484
-0.615 0.149415
-0.605 0.153346
-0.595 0.157276
-0.585 0.161206
-0.575 0.165136
-0.565 0.169065
-0.555 0.172994
-0.545 0.176923
-0.535 0.180852
-0.525 0.18478
-0.515 0.188708
-0.505 0.192635
-0.495 0.196562
-0.485 0.200489
-0.475 0.204415
-0.465 0.208341
-0.455 0.212267
-0.445 0.216192
-0.435 0.220117
-0.425 0.224041
-0.415 0.227965
-0.405 0.231888
-0.395 0.235812
-0.385 0.239734
-0.375 0.243656
-0.365 0.247578
-0.355 0.251499
-0.345 0.255419
-0.335 0.25934
-0.325 0.263259
-0.315 0.267178
-0.305 0.271097
-0.295 0.275015
-0.285 0.278932
-0.275 0.282849
-0.265 0.286765
-0.255 0.290681
-0.245 0.294596
-0.235 0.29851
-0.225 0.302424
-0.215 0.306337
-0.205 0.31025
-0.195 0.314162
-0.185 0.318073
-0.175 0.321984
-0.165 0.325894
-0.155 0.329803
-0.145 0.333712
-0.135 0.337618
-0.125 0.341528
-0.115 0.34543
-0.105 0.349342
-0.095 0.353235
-0.085 0.357158
-0.075 0.361032
-0.065 0.364983
-0.055 0.368811
-0.045 0.372834
-0.035 0.376563
-0.025 0.38076
-0.015 0.383949
-0.005 0.340762
0.005 0.0161731
0.015 -0.357135
0.025 -0.384101
0.035 -0.38026
0.045 -0.37637
0.055 -0.37248
0.065 -0.368589
0.075 -0.364696
0.085 -0.360803
0.095 -0.356909
0.105 -0.353014
0.115 -0.349119
0.125 -0.345222
0.135 -0.341324
0.145 -0.337425
0.155 -0.333526
0.165 -0.329626
0.175 -0.325725
0.185 -0.321823
0.195 -0.31792
0.205 -0.314016
0.215 -0.310112
0.225 -0.306207
0.235 -0.302301
0.245 -0.298394
0.255 -0.294487
0.265 -0.290579
0.275 -0.28667
0.285 -0.28276
0.295 -0.27885
0.305 -0.274939
0.315 -0.271028
0.325 -0.267115
0.335 -0.263202
0.345 -0.259289
0.355 -0.255375
0.365 -0.25146
0.375 -0.247544
0.385 -0.243628
0.395 -0.239712
0.405 -0.235795
0.415 -0.231877
0.425 -0.227959
0.435 -0.22404
0.445 -0.220121
0.455 -0.216201
0.465 -0.21228
0.475 -0.208359
0.485 -0.204438
0.495 -0.200516
0.505 -0.196594
0.515 -0.192671
0.525 -0.188748
0.535 -0.184824
0.545 -0.1809
0.555 -0.176975
0.565 -0.17305
0.575 -0.169125
0.585 -0.165199
0.595 -0.161273
0.605 -0.157346
0.615 -0.153419
0.625 -0.149492
0.635 -0.145564
0.645 -0.141636
0.655 -0.137708
0.665 -0.133779
0.675 -0.12985
0.685 -0.125921
0.695 -0.121991
0.705 -0.118061
0.715 -0.114131
0.725 -0.110201
0.735 -0.10627
0.745 -0.102339
0.755 -0.0984076
0.765 -0.0944762
0.775 -0.0905444
0.785 -0.0866125
0.795 -0.0826803
0.805 -0.0787479
0.815 -0.0748153
0.825 -0.0708825
0.835 -0.0669496
0.845 -0.0630164
0.855 -0.0590831
0.865 -0.0551496
0.875 -0.051216
0.885 -0.0472822
0.895 -0.0433483
0.905 -0.0394143
0.915 -0.0354801
0.925 -0.0315458
0.935 -0.0276115
0.945 -0.023677
0.955 -0.0197424
0.965 -0.0158078
0.975 -0.0118731
0.985 -0.00793829
0.995 -0.00400346
