Title="tecplot dataformat3666"
Variables="x","u"
Zone I=200 F=POINT
-0.995 -0.000325775
-0.985 0.00218339
-0.975 0.00469256
-0.965 0.00720175
-0.955 0.00971094
-0.945 0.0122201
-0.935 0.0147293
-0.925 0.0172385
-0.915 0.0197477
-0.905 0.022257
-0.895 0.0247662
-0.885 0.0272754
-0.875 0.0297846
-0.865 0.0322938
-0.855 0.034803
-0.845 0.0373121
-0.835 0.0398213
-0.825 0.0423305
-0.815 0.0448397
-0.805 0.0473488
-0.795 0.0498579
-0.785 0.052367
-0.775 0.0548761
-0.765 0.0573852
-0.755 0.0598943
-0.745 0.0624033
-0.735 0.0649124
-0.725 0.0674214
-0.715 0.0699303
-0.705 0.0724393
-0.695 0.0749482
-0.685 0.0774571
-0.675 0.079966
-0.665 0.0824748
-0.655 0.0849836
-0.645 0.0874924
-0.635 0.0900011
-0.625 0.0925098
-0.615 0.0950185
-0.605 0.0975271
-0.595 0.100036
-0.585 0.102544
-0.575 0.105053
-0.565 0.107561
-0.555 0.11007
-0.545 0.112578
-0.535 0.115086
-0.525 0.117595
-0.515 0.120103
-0.505 0.122611
-0.495 0.125119
-0.485 0.127627
-0.475 0.130135
-0.465 0.132643
-0.455 0.135151
-0.445 0.137659
-0.435 0.140167
-0.425 0.142674
-0.415 0.145182
-0.405 0.147689
-0.395 0.150197
-0.385 0.152704
-0.375 0.155212
-0.365 0.157719
-0.355 0.160226
-0.345 0.162733
-0.335 0.16524
-0.325 0.167747
-0.315 0.170254
-0.305 0.172761
-0.295 0.175268
-0.285 0.177775
-0.275 0.180281
-0.265 0.182788
-0.255 0.185294
-0.245 0.1878
-0.235 0.190307
-0.225 0.192813
-0.215 0.195319
-0.205 0.197825
-0.195 0.200331
-0.185 0.202836
-0.175 0.205342
-0.165 0.207848
-0.155 0.210353
-0.145 0.212859
-0.135 0.215363
-0.125 0.217869
-0.115 0.220373
-0.105 0.22288
-0.095 0.225382
-0.085 0.227892
-0.075 0.230388
-0.065 0.232906
-0.055 0.235389
-0.045 0.237928
-0.035 0.24038
-0.025 0.242966
-0.015 0.24528
-0.005 0.227069
0.005 0.0511219
0.015 -0.217719
0.025 -0.245869
0.035 -0.243455
0.045 -0.240952
0.055 -0.23845
0.065 -0.235949
0.075 -0.233447
0.085 -0.230944
0.095 -0.228442
0.105 -0.22594
0.115 -0.223437
0.125 -0.220934
0.135 -0.218431
0.145 -0.215928
0.155 -0.213425
0.165 -0.210922
0.175 -0.208418
0.185 -0.205915
0.195 -0.203411
0.205 -0.200907
0.215 -0.198403
0.225 -0.195899
0.235 -0.193395
0.245 -0.190891
0.255 -0.188386
0.265 -0.185882
0.275 -0.183377
0.285 -0.180872
0.295 -0.178368
0.305 -0.175863
0.315 -0.173357
0.325 -0.170852
0.335 -0.168347
0.345 -0.165842
0.355 -0.163336
0.365 -0.16083
0.375 -0.158325
0.385 -0.155819
0.395 -0.153313
0.405 -0.150807
0.415 -0.148301
0.425 -0.145795
0.435 -0.143288
0.445 -0.140782
0.455 -0.138275
0.465 -0.135769
0.475 -0.133262
0.485 -0.130756
0.495 -0.128249
0.505 -0.125742
0.515 -0.123235
0.525 -0.120728
0.535 -0.118221
0.545 -0.115714
0.555 -0.113206
0.565 -0.110699
0.575 -0.108192
0.585 -0.105684
0.595 -0.103177
0.605 -0.100669
0.615 -0.0981613
0.625 -0.0956535
0.635 -0.0931457
0.645 -0.0906379
0.655 -0.0881299
0.665 -0.085622
0.675 -0.0831139
0.685 -0.0806058
0.695 -0.0780977
0.705 -0.0755895
0.715 -0.0730813
0.725 -0.070573
0.735 -0.0680646
0.745 -0.0655562
0.755 -0.0630478
0.765 -0.0605393
0.775 -0.0580308
0.785 -0.0555222
0.795 -0.0530136
0.805 -0.0505049
0.815 -0.0479962
0.825 -0.0454875
0.835 -0.0429788
0.845 -0.04047
0.855 -0.0379611
0.865 -0.0354523
0.875 -0.0329434
0.885 -0.0304345
0.895 -0.0279255
0.905 -0.0254166
0.915 -0.0229076
0.925 -0.0203986
0.935 -0.0178895
0.945 -0.0153805
0.955 -0.0128714
0.965 -0.0103623
0.975 -0.00785319
0.985 -0.00534407
0.995 -0.00283493
