Title="tecplot dataformat3054"
Variables="x","u"
Zone I=200 F=POINT
-0.995 -0.000261386
-0.985 0.002703
-0.975 0.00566741
-0.965 0.00863182
-0.955 0.0115963
-0.945 0.0145607
-0.935 0.0175251
-0.925 0.0204896
-0.915 0.023454
-0.905 0.0264185
-0.895 0.0293829
-0.885 0.0323473
-0.875 0.0353118
-0.865 0.0382762
-0.855 0.0412406
-0.845 0.0442049
-0.835 0.0471693
-0.825 0.0501336
-0.815 0.0530979
-0.805 0.0560622
-0.795 0.0590265
-0.785 0.0619907
-0.775 0.0649549
-0.765 0.067919
-0.755 0.0708831
-0.745 0.0738472
-0.735 0.0768112
-0.725 0.0797752
-0.715 0.0827391
-0.705 0.085703
-0.695 0.0886668
-0.685 0.0916305
-0.675 0.0945942
-0.665 0.0975579
-0.655 0.100521
-0.645 0.103485
-0.635 0.106448
-0.625 0.109412
-0.615 0.112375
-0.605 0.115338
-0.595 0.118301
-0.585 0.121264
-0.575 0.124227
-0.565 0.12719
-0.555 0.130153
-0.545 0.133116
-0.535 0.136078
-0.525 0.139041
-0.515 0.142003
-0.505 0.144965
-0.495 0.147927
-0.485 0.150889
-0.475 0.153851
-0.465 0.156813
-0.455 0.159775
-0.445 0.162736
-0.435 0.165698
-0.425 0.168659
-0.415 0.17162
-0.405 0.174581
-0.395 0.177542
-0.385 0.180503
-0.375 0.183464
-0.365 0.186424
-0.355 0.189384
-0.345 0.192345
-0.335 0.195305
-0.325 0.198265
-0.315 0.201224
-0.305 0.204184
-0.295 0.207143
-0.285 0.210102
-0.275 0.213061
-0.265 0.21602
-0.255 0.218979
-0.245 0.221938
-0.235 0.224896
-0.225 0.227854
-0.215 0.230812
-0.205 0.23377
-0.195 0.236727
-0.185 0.239685
-0.175 0.242642
-0.165 0.245599
-0.155 0.248556
-0.145 0.251513
-0.135 0.254468
-0.125 0.257426
-0.115 0.260379
-0.105 0.263339
-0.095 0.266288
-0.085 0.269253
-0.075 0.272193
-0.065 0.275171
-0.055 0.27809
-0.045 0.281102
-0.035 0.283972
-0.025 0.287062
-0.015 0.2897
-0.005 0.264479
0.005 0.0430299
0.015 -0.262011
0.025 -0.29019
0.035 -0.287313
0.045 -0.284362
0.055 -0.281412
0.065 -0.278462
0.075 -0.275511
0.085 -0.27256
0.095 -0.269609
0.105 -0.266657
0.115 -0.263706
0.125 -0.260754
0.135 -0.257801
0.145 -0.254849
0.155 -0.251896
0.165 -0.248943
0.175 -0.245989
0.185 -0.243036
0.195 -0.240082
0.205 -0.237127
0.215 -0.234173
0.225 -0.231218
0.235 -0.228264
0.245 -0.225308
0.255 -0.222353
0.265 -0.219397
0.275 -0.216442
0.285 -0.213486
0.295 -0.210529
0.305 -0.207573
0.315 -0.204616
0.325 -0.201659
0.335 -0.198702
0.345 -0.195745
0.355 -0.192788
0.365 -0.18983
0.375 -0.186872
0.385 -0.183914
0.395 -0.180956
0.405 -0.177997
0.415 -0.175039
0.425 -0.17208
0.435 -0.169121
0.445 -0.166162
0.455 -0.163202
0.465 -0.160243
0.475 -0.157283
0.485 -0.154323
0.495 -0.151364
0.505 -0.148403
0.515 -0.145443
0.525 -0.142483
0.535 -0.139522
0.545 -0.136561
0.555 -0.133601
0.565 -0.13064
0.575 -0.127678
0.585 -0.124717
0.595 -0.121756
0.605 -0.118794
0.615 -0.115833
0.625 -0.112871
0.635 -0.109909
0.645 -0.106947
0.655 -0.103985
0.665 -0.101023
0.675 -0.0980605
0.685 -0.0950981
0.695 -0.0921356
0.705 -0.0891729
0.715 -0.0862102
0.725 -0.0832474
0.735 -0.0802845
0.745 -0.0773215
0.755 -0.0743585
0.765 -0.0713953
0.775 -0.0684321
0.785 -0.0654687
0.795 -0.0625053
0.805 -0.0595419
0.815 -0.0565784
0.825 -0.0536148
0.835 -0.0506511
0.845 -0.0476874
0.855 -0.0447236
0.865 -0.0417597
0.875 -0.0387958
0.885 -0.0358319
0.895 -0.0328679
0.905 -0.0299038
0.915 -0.0269397
0.925 -0.0239756
0.935 -0.0210114
0.945 -0.0180472
0.955 -0.015083
0.965 -0.0121187
0.975 -0.00915443
0.985 -0.0061901
0.995 -0.00322576
