Title="tecplot dataformat3802"
Variables="x","u"
Zone I=200 F=POINT
-0.995 -0.000335371
-0.985 0.00209099
-0.975 0.00451737
-0.965 0.00694375
-0.955 0.00937014
-0.945 0.0117965
-0.935 0.0142229
-0.925 0.0166493
-0.915 0.0190757
-0.905 0.0215021
-0.895 0.0239285
-0.885 0.0263549
-0.875 0.0287814
-0.865 0.0312077
-0.855 0.0336341
-0.845 0.0360605
-0.835 0.0384869
-0.825 0.0409133
-0.815 0.0433397
-0.805 0.045766
-0.795 0.0481923
-0.785 0.0506187
-0.775 0.053045
-0.765 0.0554713
-0.755 0.0578976
-0.745 0.0603238
-0.735 0.0627501
-0.725 0.0651763
-0.715 0.0676025
-0.705 0.0700287
-0.695 0.0724549
-0.685 0.074881
-0.675 0.0773071
-0.665 0.0797332
-0.655 0.0821593
-0.645 0.0845853
-0.635 0.0870113
-0.625 0.0894373
-0.615 0.0918633
-0.605 0.0942892
-0.595 0.096715
-0.585 0.0991409
-0.575 0.101567
-0.565 0.103992
-0.555 0.106418
-0.545 0.108844
-0.535 0.111269
-0.525 0.113695
-0.515 0.116121
-0.505 0.118546
-0.495 0.120972
-0.485 0.123397
-0.475 0.125822
-0.465 0.128248
-0.455 0.130673
-0.445 0.133098
-0.435 0.135523
-0.425 0.137948
-0.415 0.140373
-0.405 0.142798
-0.395 0.145223
-0.385 0.147648
-0.375 0.150073
-0.365 0.152498
-0.355 0.154923
-0.345 0.157347
-0.335 0.159772
-0.325 0.162196
-0.315 0.164621
-0.305 0.167045
-0.295 0.169469
-0.285 0.171894
-0.275 0.174318
-0.265 0.176742
-0.255 0.179166
-0.245 0.18159
-0.235 0.184013
-0.225 0.186437
-0.215 0.188861
-0.205 0.191284
-0.195 0.193708
-0.185 0.196131
-0.175 0.198555
-0.165 0.200978
-0.155 0.203401
-0.145 0.205824
-0.135 0.208247
-0.125 0.210671
-0.115 0.213092
-0.105 0.215517
-0.095 0.217936
-0.085 0.220364
-0.075 0.222778
-0.065 0.225214
-0.055 0.227616
-0.045 0.23007
-0.035 0.232444
-0.025 0.23494
-0.015 0.237192
-0.005 0.220155
0.005 0.052244
0.015 -0.209698
0.025 -0.237794
0.035 -0.235464
0.045 -0.233043
0.055 -0.230624
0.065 -0.228204
0.075 -0.225783
0.085 -0.223363
0.095 -0.220943
0.105 -0.218522
0.115 -0.216102
0.125 -0.213681
0.135 -0.21126
0.145 -0.208839
0.155 -0.206418
0.165 -0.203997
0.175 -0.201575
0.185 -0.199154
0.195 -0.196732
0.205 -0.194311
0.215 -0.191889
0.225 -0.189467
0.235 -0.187045
0.245 -0.184623
0.255 -0.182201
0.265 -0.179779
0.275 -0.177356
0.285 -0.174934
0.295 -0.172511
0.305 -0.170088
0.315 -0.167666
0.325 -0.165243
0.335 -0.16282
0.345 -0.160397
0.355 -0.157974
0.365 -0.15555
0.375 -0.153127
0.385 -0.150704
0.395 -0.14828
0.405 -0.145856
0.415 -0.143433
0.425 -0.141009
0.435 -0.138585
0.445 -0.136161
0.455 -0.133737
0.465 -0.131313
0.475 -0.128889
0.485 -0.126465
0.495 -0.124041
0.505 -0.121616
0.515 -0.119192
0.525 -0.116767
0.535 -0.114343
0.545 -0.111918
0.555 -0.109494
0.565 -0.107069
0.575 -0.104644
0.585 -0.102219
0.595 -0.0997942
0.605 -0.0973692
0.615 -0.0949441
0.625 -0.092519
0.635 -0.0900939
0.645 -0.0876687
0.655 -0.0852434
0.665 -0.0828181
0.675 -0.0803927
0.685 -0.0779673
0.695 -0.0755418
0.705 -0.0731163
0.715 -0.0706908
0.725 -0.0682652
0.735 -0.0658395
0.745 -0.0634139
0.755 -0.0609881
0.765 -0.0585624
0.775 -0.0561366
0.785 -0.0537107
0.795 -0.0512849
0.805 -0.048859
0.815 -0.046433
0.825 -0.044007
0.835 -0.041581
0.845 -0.039155
0.855 -0.036729
0.865 -0.0343029
0.875 -0.0318767
0.885 -0.0294506
0.895 -0.0270244
0.905 -0.0245983
0.915 -0.022172
0.925 -0.0197458
0.935 -0.0173196
0.945 -0.0148933
0.955 -0.012467
0.965 -0.0100407
0.975 -0.0076144
0.985 -0.00518807
0.995 -0.00276172
