Title="tecplot dataformat3456"
Variables="x","u"
Zone I=200 F=POINT
-0.995 -0.000308067
-0.985 0.00234067
-0.975 0.00498941
-0.965 0.00763817
-0.955 0.0102869
-0.945 0.0129357
-0.935 0.0155845
-0.925 0.0182333
-0.915 0.020882
-0.905 0.0235308
-0.895 0.0261796
-0.885 0.0288284
-0.875 0.0314772
-0.865 0.0341259
-0.855 0.0367747
-0.845 0.0394234
-0.835 0.0420722
-0.825 0.0447209
-0.815 0.0473696
-0.805 0.0500183
-0.795 0.052667
-0.785 0.0553157
-0.775 0.0579643
-0.765 0.0606129
-0.755 0.0632615
-0.745 0.0659101
-0.735 0.0685586
-0.725 0.0712071
-0.715 0.0738556
-0.705 0.0765041
-0.695 0.0791525
-0.685 0.0818008
-0.675 0.0844492
-0.665 0.0870975
-0.655 0.0897457
-0.645 0.092394
-0.635 0.0950421
-0.625 0.0976903
-0.615 0.100338
-0.605 0.102986
-0.595 0.105634
-0.585 0.108282
-0.575 0.11093
-0.565 0.113578
-0.555 0.116226
-0.545 0.118873
-0.535 0.121521
-0.525 0.124169
-0.515 0.126816
-0.505 0.129464
-0.495 0.132111
-0.485 0.134758
-0.475 0.137406
-0.465 0.140053
-0.455 0.1427
-0.445 0.145347
-0.435 0.147994
-0.425 0.150641
-0.415 0.153288
-0.405 0.155934
-0.395 0.158581
-0.385 0.161227
-0.375 0.163874
-0.365 0.16652
-0.355 0.169166
-0.345 0.171813
-0.335 0.174459
-0.325 0.177105
-0.315 0.179751
-0.305 0.182396
-0.295 0.185042
-0.285 0.187688
-0.275 0.190333
-0.265 0.192978
-0.255 0.195624
-0.245 0.198269
-0.235 0.200914
-0.225 0.203559
-0.215 0.206204
-0.205 0.208848
-0.195 0.211493
-0.185 0.214137
-0.175 0.216781
-0.165 0.219426
-0.155 0.22207
-0.145 0.224714
-0.135 0.227357
-0.125 0.230002
-0.115 0.232644
-0.105 0.23529
-0.095 0.237929
-0.085 0.240578
-0.075 0.243211
-0.065 0.245871
-0.055 0.248487
-0.045 0.251172
-0.035 0.253752
-0.025 0.256492
-0.015 0.258909
-0.005 0.238648
0.005 0.0489789
0.015 -0.231266
0.025 -0.259472
0.035 -0.256915
0.045 -0.254275
0.055 -0.251636
0.065 -0.248996
0.075 -0.246356
0.085 -0.243716
0.095 -0.241075
0.105 -0.238435
0.115 -0.235794
0.125 -0.233154
0.135 -0.230513
0.145 -0.227871
0.155 -0.22523
0.165 -0.222589
0.175 -0.219947
0.185 -0.217305
0.195 -0.214663
0.205 -0.212021
0.215 -0.209379
0.225 -0.206736
0.235 -0.204094
0.245 -0.201451
0.255 -0.198808
0.265 -0.196165
0.275 -0.193522
0.285 -0.190878
0.295 -0.188235
0.305 -0.185591
0.315 -0.182948
0.325 -0.180304
0.335 -0.17766
0.345 -0.175016
0.355 -0.172371
0.365 -0.169727
0.375 -0.167082
0.385 -0.164438
0.395 -0.161793
0.405 -0.159148
0.415 -0.156503
0.425 -0.153858
0.435 -0.151213
0.445 -0.148568
0.455 -0.145922
0.465 -0.143277
0.475 -0.140631
0.485 -0.137985
0.495 -0.135339
0.505 -0.132694
0.515 -0.130048
0.525 -0.127401
0.535 -0.124755
0.545 -0.122109
0.555 -0.119462
0.565 -0.116816
0.575 -0.114169
0.585 -0.111523
0.595 -0.108876
0.605 -0.106229
0.615 -0.103582
0.625 -0.100935
0.635 -0.0982881
0.645 -0.0956409
0.655 -0.0929937
0.665 -0.0903464
0.675 -0.0876991
0.685 -0.0850516
0.695 -0.0824042
0.705 -0.0797566
0.715 -0.077109
0.725 -0.0744613
0.735 -0.0718135
0.745 -0.0691657
0.755 -0.0665179
0.765 -0.06387
0.775 -0.061222
0.785 -0.058574
0.795 -0.0559259
0.805 -0.0532778
0.815 -0.0506297
0.825 -0.0479814
0.835 -0.0453332
0.845 -0.0426849
0.855 -0.0400366
0.865 -0.0373882
0.875 -0.0347398
0.885 -0.0320914
0.895 -0.0294429
0.905 -0.0267944
0.915 -0.0241459
0.925 -0.0214973
0.935 -0.0188488
0.945 -0.0162001
0.955 -0.0135515
0.965 -0.0109029
0.975 -0.00825419
0.985 -0.0056055
0.995 -0.00295679
