Title="tecplot dataformat3566"
Variables="x","u"
Zone I=200 F=POINT
-0.995 -0.000317816
-0.985 0.00225593
-0.975 0.00482968
-0.965 0.00740345
-0.955 0.00997722
-0.945 0.012551
-0.935 0.0151248
-0.925 0.0176986
-0.915 0.0202724
-0.905 0.0228462
-0.895 0.0254199
-0.885 0.0279937
-0.875 0.0305675
-0.865 0.0331413
-0.855 0.0357151
-0.845 0.0382888
-0.835 0.0408626
-0.825 0.0434363
-0.815 0.0460101
-0.805 0.0485838
-0.795 0.0511575
-0.785 0.0537312
-0.775 0.0563048
-0.765 0.0588785
-0.755 0.0614521
-0.745 0.0640257
-0.735 0.0665993
-0.725 0.0691728
-0.715 0.0717464
-0.705 0.0743199
-0.695 0.0768933
-0.685 0.0794668
-0.675 0.0820402
-0.665 0.0846136
-0.655 0.0871869
-0.645 0.0897602
-0.635 0.0923334
-0.625 0.0949067
-0.615 0.0974798
-0.605 0.100053
-0.595 0.102626
-0.585 0.105199
-0.575 0.107772
-0.565 0.110345
-0.555 0.112918
-0.545 0.115491
-0.535 0.118064
-0.525 0.120636
-0.515 0.123209
-0.505 0.125782
-0.495 0.128354
-0.485 0.130927
-0.475 0.133499
-0.465 0.136072
-0.455 0.138644
-0.445 0.141216
-0.435 0.143788
-0.425 0.14636
-0.415 0.148932
-0.405 0.151504
-0.395 0.154076
-0.385 0.156648
-0.375 0.15922
-0.365 0.161791
-0.355 0.164363
-0.345 0.166934
-0.335 0.169506
-0.325 0.172077
-0.315 0.174648
-0.305 0.17722
-0.295 0.179791
-0.285 0.182362
-0.275 0.184932
-0.265 0.187503
-0.255 0.190074
-0.245 0.192644
-0.235 0.195215
-0.225 0.197785
-0.215 0.200356
-0.205 0.202926
-0.195 0.205496
-0.185 0.208066
-0.175 0.210635
-0.165 0.213205
-0.155 0.215775
-0.145 0.218345
-0.135 0.220913
-0.125 0.223484
-0.115 0.226051
-0.105 0.228623
-0.095 0.231188
-0.085 0.233763
-0.075 0.236322
-0.065 0.238906
-0.055 0.24145
-0.045 0.244057
-0.035 0.246568
-0.025 0.249226
-0.015 0.251587
-0.005 0.232439
0.005 0.0501689
0.015 -0.223983
0.025 -0.252165
0.035 -0.249684
0.045 -0.247118
0.055 -0.244553
0.065 -0.241987
0.075 -0.239421
0.085 -0.236855
0.095 -0.234289
0.105 -0.231722
0.115 -0.229156
0.125 -0.226589
0.135 -0.224022
0.145 -0.221455
0.155 -0.218888
0.165 -0.216321
0.175 -0.213754
0.185 -0.211186
0.195 -0.208618
0.205 -0.206051
0.215 -0.203483
0.225 -0.200914
0.235 -0.198346
0.245 -0.195778
0.255 -0.193209
0.265 -0.190641
0.275 -0.188072
0.285 -0.185503
0.295 -0.182934
0.305 -0.180365
0.315 -0.177796
0.325 -0.175226
0.335 -0.172657
0.345 -0.170087
0.355 -0.167517
0.365 -0.164947
0.375 -0.162378
0.385 -0.159807
0.395 -0.157237
0.405 -0.154667
0.415 -0.152097
0.425 -0.149526
0.435 -0.146956
0.445 -0.144385
0.455 -0.141814
0.465 -0.139243
0.475 -0.136672
0.485 -0.134101
0.495 -0.13153
0.505 -0.128959
0.515 -0.126388
0.525 -0.123816
0.535 -0.121245
0.545 -0.118673
0.555 -0.116101
0.565 -0.11353
0.575 -0.110958
0.585 -0.108386
0.595 -0.105814
0.605 -0.103242
0.615 -0.10067
0.625 -0.0980977
0.635 -0.0955255
0.645 -0.0929531
0.655 -0.0903808
0.665 -0.0878083
0.675 -0.0852358
0.685 -0.0826632
0.695 -0.0800906
0.705 -0.0775179
0.715 -0.0749452
0.725 -0.0723724
0.735 -0.0697995
0.745 -0.0672266
0.755 -0.0646537
0.765 -0.0620807
0.775 -0.0595076
0.785 -0.0569345
0.795 -0.0543614
0.805 -0.0517882
0.815 -0.049215
0.825 -0.0466417
0.835 -0.0440684
0.845 -0.0414951
0.855 -0.0389217
0.865 -0.0363483
0.875 -0.0337749
0.885 -0.0312014
0.895 -0.0286279
0.905 -0.0260544
0.915 -0.0234808
0.925 -0.0209072
0.935 -0.0183336
0.945 -0.01576
0.955 -0.0131863
0.965 -0.0106127
0.975 -0.00803897
0.985 -0.00546527
0.995 -0.00289155
