Title="tecplot dataformat3790"
Variables="x","u"
Zone I=200 F=POINT
-0.995 -0.000334577
-0.985 0.00209887
-0.975 0.00453233
-0.965 0.0069658
-0.955 0.00939927
-0.945 0.0118328
-0.935 0.0142662
-0.925 0.0166997
-0.915 0.0191332
-0.905 0.0215667
-0.895 0.0240002
-0.885 0.0264337
-0.875 0.0288672
-0.865 0.0313007
-0.855 0.0337341
-0.845 0.0361676
-0.835 0.0386011
-0.825 0.0410345
-0.815 0.043468
-0.805 0.0459014
-0.795 0.0483348
-0.785 0.0507683
-0.775 0.0532017
-0.765 0.055635
-0.755 0.0580684
-0.745 0.0605018
-0.735 0.0629351
-0.725 0.0653684
-0.715 0.0678017
-0.705 0.070235
-0.695 0.0726682
-0.685 0.0751014
-0.675 0.0775346
-0.665 0.0799678
-0.655 0.082401
-0.645 0.0848341
-0.635 0.0872672
-0.625 0.0897002
-0.615 0.0921332
-0.605 0.0945662
-0.595 0.0969992
-0.585 0.0994321
-0.575 0.101865
-0.565 0.104298
-0.555 0.106731
-0.545 0.109163
-0.535 0.111596
-0.525 0.114029
-0.515 0.116461
-0.505 0.118894
-0.495 0.121326
-0.485 0.123759
-0.475 0.126191
-0.465 0.128624
-0.455 0.131056
-0.445 0.133488
-0.435 0.135921
-0.425 0.138353
-0.415 0.140785
-0.405 0.143217
-0.395 0.145649
-0.385 0.148081
-0.375 0.150513
-0.365 0.152945
-0.355 0.155376
-0.345 0.157808
-0.335 0.16024
-0.325 0.162671
-0.315 0.165103
-0.305 0.167534
-0.295 0.169966
-0.285 0.172397
-0.275 0.174828
-0.265 0.177259
-0.255 0.17969
-0.245 0.182121
-0.235 0.184552
-0.225 0.186983
-0.215 0.189414
-0.205 0.191844
-0.195 0.194275
-0.185 0.196705
-0.175 0.199136
-0.165 0.201566
-0.155 0.203996
-0.145 0.206426
-0.135 0.208856
-0.125 0.211287
-0.115 0.213715
-0.105 0.216147
-0.095 0.218573
-0.085 0.221008
-0.075 0.223429
-0.065 0.225872
-0.055 0.228281
-0.045 0.230742
-0.035 0.233123
-0.025 0.235627
-0.015 0.237884
-0.005 0.220748
0.005 0.0521524
0.015 -0.210384
0.025 -0.238485
0.035 -0.236148
0.045 -0.23372
0.055 -0.231293
0.065 -0.228866
0.075 -0.226439
0.085 -0.224012
0.095 -0.221585
0.105 -0.219157
0.115 -0.21673
0.125 -0.214302
0.135 -0.211874
0.145 -0.209446
0.155 -0.207018
0.165 -0.20459
0.175 -0.202161
0.185 -0.199733
0.195 -0.197304
0.205 -0.194875
0.215 -0.192447
0.225 -0.190018
0.235 -0.187589
0.245 -0.18516
0.255 -0.18273
0.265 -0.180301
0.275 -0.177872
0.285 -0.175442
0.295 -0.173012
0.305 -0.170583
0.315 -0.168153
0.325 -0.165723
0.335 -0.163293
0.345 -0.160863
0.355 -0.158432
0.365 -0.156002
0.375 -0.153572
0.385 -0.151141
0.395 -0.148711
0.405 -0.14628
0.415 -0.143849
0.425 -0.141419
0.435 -0.138988
0.445 -0.136557
0.455 -0.134126
0.465 -0.131695
0.475 -0.129263
0.485 -0.126832
0.495 -0.124401
0.505 -0.121969
0.515 -0.119538
0.525 -0.117106
0.535 -0.114675
0.545 -0.112243
0.555 -0.109811
0.565 -0.107379
0.575 -0.104948
0.585 -0.102516
0.595 -0.100084
0.605 -0.0976516
0.615 -0.0952195
0.625 -0.0927873
0.635 -0.0903551
0.645 -0.0879228
0.655 -0.0854904
0.665 -0.083058
0.675 -0.0806256
0.685 -0.0781931
0.695 -0.0757606
0.705 -0.073328
0.715 -0.0708954
0.725 -0.0684627
0.735 -0.06603
0.745 -0.0635972
0.755 -0.0611644
0.765 -0.0587316
0.775 -0.0562987
0.785 -0.0538658
0.795 -0.0514328
0.805 -0.0489998
0.815 -0.0465668
0.825 -0.0441338
0.835 -0.0417007
0.845 -0.0392676
0.855 -0.0368344
0.865 -0.0344013
0.875 -0.0319681
0.885 -0.0295348
0.895 -0.0271016
0.905 -0.0246683
0.915 -0.022235
0.925 -0.0198017
0.935 -0.0173684
0.945 -0.014935
0.955 -0.0125016
0.965 -0.0100683
0.975 -0.00763486
0.985 -0.00520144
0.995 -0.00276802
