Title="tecplot dataformat3017"
Variables="x","u"
Zone I=200 F=POINT
-0.995 -0.000256026
-0.985 0.00274124
-0.975 0.00573852
-0.965 0.00873581
-0.955 0.0117331
-0.945 0.0147304
-0.935 0.0177277
-0.925 0.0207251
-0.915 0.0237224
-0.905 0.0267197
-0.895 0.029717
-0.885 0.0327143
-0.875 0.0357116
-0.865 0.0387089
-0.855 0.0417062
-0.845 0.0447034
-0.835 0.0477007
-0.825 0.0506979
-0.815 0.053695
-0.805 0.0566922
-0.795 0.0596893
-0.785 0.0626864
-0.775 0.0656834
-0.765 0.0686804
-0.755 0.0716774
-0.745 0.0746743
-0.735 0.0776712
-0.725 0.080668
-0.715 0.0836648
-0.705 0.0866615
-0.695 0.0896582
-0.685 0.0926548
-0.675 0.0956513
-0.665 0.0986477
-0.655 0.101644
-0.645 0.10464
-0.635 0.107637
-0.625 0.110633
-0.615 0.113629
-0.605 0.116625
-0.595 0.119621
-0.585 0.122617
-0.575 0.125612
-0.565 0.128608
-0.555 0.131604
-0.545 0.134599
-0.535 0.137594
-0.525 0.14059
-0.515 0.143585
-0.505 0.14658
-0.495 0.149575
-0.485 0.15257
-0.475 0.155564
-0.465 0.158559
-0.455 0.161553
-0.445 0.164547
-0.435 0.167542
-0.425 0.170536
-0.415 0.17353
-0.405 0.176523
-0.395 0.179517
-0.385 0.18251
-0.375 0.185504
-0.365 0.188497
-0.355 0.19149
-0.345 0.194483
-0.335 0.197475
-0.325 0.200468
-0.315 0.20346
-0.305 0.206453
-0.295 0.209445
-0.285 0.212436
-0.275 0.215428
-0.265 0.21842
-0.255 0.221411
-0.245 0.224402
-0.235 0.227393
-0.225 0.230384
-0.215 0.233374
-0.205 0.236365
-0.195 0.239355
-0.185 0.242345
-0.175 0.245334
-0.165 0.248324
-0.155 0.251313
-0.145 0.254302
-0.135 0.25729
-0.125 0.26028
-0.115 0.263267
-0.105 0.266258
-0.095 0.26924
-0.085 0.272237
-0.075 0.27521
-0.065 0.278221
-0.055 0.281172
-0.045 0.284218
-0.035 0.287117
-0.025 0.290244
-0.015 0.292904
-0.005 0.267141
0.005 0.0423263
0.015 -0.265221
0.025 -0.293385
0.035 -0.290475
0.045 -0.287492
0.055 -0.28451
0.065 -0.281527
0.075 -0.278544
0.085 -0.275561
0.095 -0.272577
0.105 -0.269594
0.115 -0.26661
0.125 -0.263625
0.135 -0.26064
0.145 -0.257655
0.155 -0.25467
0.165 -0.251685
0.175 -0.248699
0.185 -0.245713
0.195 -0.242727
0.205 -0.23974
0.215 -0.236753
0.225 -0.233766
0.235 -0.230779
0.245 -0.227791
0.255 -0.224803
0.265 -0.221815
0.275 -0.218827
0.285 -0.215838
0.295 -0.21285
0.305 -0.209861
0.315 -0.206871
0.325 -0.203882
0.335 -0.200892
0.345 -0.197902
0.355 -0.194912
0.365 -0.191922
0.375 -0.188932
0.385 -0.185941
0.395 -0.18295
0.405 -0.179959
0.415 -0.176968
0.425 -0.173976
0.435 -0.170985
0.445 -0.167993
0.455 -0.165001
0.465 -0.162009
0.475 -0.159017
0.485 -0.156024
0.495 -0.153031
0.505 -0.150039
0.515 -0.147046
0.525 -0.144053
0.535 -0.141059
0.545 -0.138066
0.555 -0.135072
0.565 -0.132079
0.575 -0.129085
0.585 -0.126091
0.595 -0.123097
0.605 -0.120102
0.615 -0.117108
0.625 -0.114113
0.635 -0.111119
0.645 -0.108124
0.655 -0.105129
0.665 -0.102134
0.675 -0.099139
0.685 -0.0961438
0.695 -0.0931485
0.705 -0.0901531
0.715 -0.0871575
0.725 -0.0841619
0.735 -0.0811662
0.745 -0.0781704
0.755 -0.0751745
0.765 -0.0721785
0.775 -0.0691824
0.785 -0.0661863
0.795 -0.0631901
0.805 -0.0601938
0.815 -0.0571974
0.825 -0.0542009
0.835 -0.0512044
0.845 -0.0482078
0.855 -0.0452112
0.865 -0.0422145
0.875 -0.0392178
0.885 -0.0362209
0.895 -0.0332241
0.905 -0.0302272
0.915 -0.0272302
0.925 -0.0242332
0.935 -0.0212362
0.945 -0.0182391
0.955 -0.015242
0.965 -0.0122449
0.975 -0.00924769
0.985 -0.00625049
0.995 -0.00325327
