Title="tecplot dataformat3879"
Variables="x","u"
Zone I=200 F=POINT
-0.995 -0.000340238
-0.985 0.00204162
-0.975 0.0044235
-0.965 0.00680538
-0.955 0.00918726
-0.945 0.0115692
-0.935 0.013951
-0.925 0.0163329
-0.915 0.0187149
-0.905 0.0210968
-0.895 0.0234787
-0.885 0.0258606
-0.875 0.0282425
-0.865 0.0306244
-0.855 0.0330062
-0.845 0.0353881
-0.835 0.03777
-0.825 0.0401519
-0.815 0.0425338
-0.805 0.0449156
-0.795 0.0472975
-0.785 0.0496793
-0.775 0.0520611
-0.765 0.0544429
-0.755 0.0568247
-0.745 0.0592065
-0.735 0.0615883
-0.725 0.06397
-0.715 0.0663517
-0.705 0.0687334
-0.695 0.0711151
-0.685 0.0734968
-0.675 0.0758784
-0.665 0.07826
-0.655 0.0806416
-0.645 0.0830232
-0.635 0.0854047
-0.625 0.0877862
-0.615 0.0901677
-0.605 0.0925492
-0.595 0.0949306
-0.585 0.097312
-0.575 0.0996933
-0.565 0.102075
-0.555 0.104456
-0.545 0.106837
-0.535 0.109218
-0.525 0.111599
-0.515 0.113981
-0.505 0.116362
-0.495 0.118743
-0.485 0.121124
-0.475 0.123505
-0.465 0.125886
-0.455 0.128266
-0.445 0.130647
-0.435 0.133028
-0.425 0.135409
-0.415 0.137789
-0.405 0.14017
-0.395 0.14255
-0.385 0.144931
-0.375 0.147311
-0.365 0.149692
-0.355 0.152072
-0.345 0.154452
-0.335 0.156833
-0.325 0.159213
-0.315 0.161593
-0.305 0.163973
-0.295 0.166353
-0.285 0.168733
-0.275 0.171112
-0.265 0.173492
-0.255 0.175872
-0.245 0.178251
-0.235 0.180631
-0.225 0.18301
-0.215 0.18539
-0.205 0.187769
-0.195 0.190148
-0.185 0.192528
-0.175 0.194907
-0.165 0.197286
-0.155 0.199664
-0.145 0.202043
-0.135 0.204422
-0.125 0.206801
-0.115 0.209179
-0.105 0.211559
-0.095 0.213934
-0.085 0.216317
-0.075 0.218688
-0.065 0.221078
-0.055 0.223437
-0.045 0.225846
-0.035 0.228178
-0.025 0.230626
-0.015 0.232843
-0.005 0.216426
0.005 0.0527997
0.015 -0.205393
0.025 -0.233452
0.035 -0.231168
0.045 -0.228791
0.055 -0.226415
0.065 -0.22404
0.075 -0.221664
0.085 -0.219287
0.095 -0.216911
0.105 -0.214535
0.115 -0.212158
0.125 -0.209782
0.135 -0.207405
0.145 -0.205028
0.155 -0.202651
0.165 -0.200274
0.175 -0.197897
0.185 -0.195519
0.195 -0.193142
0.205 -0.190765
0.215 -0.188387
0.225 -0.186009
0.235 -0.183632
0.245 -0.181254
0.255 -0.178876
0.265 -0.176498
0.275 -0.174119
0.285 -0.171741
0.295 -0.169363
0.305 -0.166984
0.315 -0.164606
0.325 -0.162227
0.335 -0.159849
0.345 -0.15747
0.355 -0.155091
0.365 -0.152712
0.375 -0.150333
0.385 -0.147954
0.395 -0.145575
0.405 -0.143195
0.415 -0.140816
0.425 -0.138436
0.435 -0.136057
0.445 -0.133677
0.455 -0.131298
0.465 -0.128918
0.475 -0.126538
0.485 -0.124158
0.495 -0.121779
0.505 -0.119399
0.515 -0.117018
0.525 -0.114638
0.535 -0.112258
0.545 -0.109878
0.555 -0.107498
0.565 -0.105117
0.575 -0.102737
0.585 -0.100356
0.595 -0.0979759
0.605 -0.0955953
0.615 -0.0932147
0.625 -0.090834
0.635 -0.0884533
0.645 -0.0860725
0.655 -0.0836916
0.665 -0.0813108
0.675 -0.0789298
0.685 -0.0765489
0.695 -0.0741678
0.705 -0.0717868
0.715 -0.0694057
0.725 -0.0670245
0.735 -0.0646433
0.745 -0.0622621
0.755 -0.0598809
0.765 -0.0574996
0.775 -0.0551182
0.785 -0.0527369
0.795 -0.0503555
0.805 -0.047974
0.815 -0.0455926
0.825 -0.0432111
0.835 -0.0408295
0.845 -0.038448
0.855 -0.0360664
0.865 -0.0336848
0.875 -0.0313032
0.885 -0.0289215
0.895 -0.0265399
0.905 -0.0241582
0.915 -0.0217764
0.925 -0.0193947
0.935 -0.0170129
0.945 -0.0146312
0.955 -0.0122494
0.965 -0.00986758
0.975 -0.00748576
0.985 -0.00510393
0.995 -0.00272209
