Title="tecplot dataformat3348"
Variables="x","u"
Zone I=200 F=POINT
-0.995 -0.000297364
-0.985 0.00242937
-0.975 0.00515613
-0.965 0.00788289
-0.955 0.0106097
-0.945 0.0133364
-0.935 0.0160632
-0.925 0.01879
-0.915 0.0215168
-0.905 0.0242436
-0.895 0.0269704
-0.885 0.0296972
-0.875 0.0324239
-0.865 0.0351507
-0.855 0.0378775
-0.845 0.0406042
-0.835 0.0433309
-0.825 0.0460577
-0.815 0.0487844
-0.805 0.0515111
-0.795 0.0542377
-0.785 0.0569644
-0.775 0.059691
-0.765 0.0624176
-0.755 0.0651442
-0.745 0.0678707
-0.735 0.0705972
-0.725 0.0733237
-0.715 0.0760501
-0.705 0.0787765
-0.695 0.0815029
-0.685 0.0842292
-0.675 0.0869555
-0.665 0.0896817
-0.655 0.0924079
-0.645 0.0951341
-0.635 0.0978602
-0.625 0.100586
-0.615 0.103312
-0.605 0.106038
-0.595 0.108764
-0.585 0.11149
-0.575 0.114216
-0.565 0.116941
-0.555 0.119667
-0.545 0.122392
-0.535 0.125118
-0.525 0.127843
-0.515 0.130569
-0.505 0.133294
-0.495 0.136019
-0.485 0.138744
-0.475 0.141469
-0.465 0.144194
-0.455 0.146919
-0.445 0.149644
-0.435 0.152369
-0.425 0.155093
-0.415 0.157818
-0.405 0.160542
-0.395 0.163267
-0.385 0.165991
-0.375 0.168715
-0.365 0.171439
-0.355 0.174163
-0.345 0.176887
-0.335 0.17961
-0.325 0.182334
-0.315 0.185058
-0.305 0.187781
-0.295 0.190504
-0.285 0.193227
-0.275 0.19595
-0.265 0.198673
-0.255 0.201396
-0.245 0.204119
-0.235 0.206841
-0.225 0.209564
-0.215 0.212286
-0.205 0.215008
-0.195 0.21773
-0.185 0.220452
-0.175 0.223174
-0.165 0.225895
-0.155 0.228617
-0.145 0.231338
-0.135 0.234059
-0.125 0.236781
-0.115 0.2395
-0.105 0.242223
-0.095 0.244939
-0.085 0.247667
-0.075 0.250376
-0.065 0.253114
-0.055 0.255806
-0.045 0.258571
-0.035 0.261223
-0.025 0.264049
-0.015 0.266522
-0.005 0.245077
0.005 0.047648
0.015 -0.238851
0.025 -0.267069
0.035 -0.264433
0.045 -0.261716
0.055 -0.259
0.065 -0.256283
0.075 -0.253566
0.085 -0.250849
0.095 -0.248132
0.105 -0.245414
0.115 -0.242697
0.125 -0.239979
0.135 -0.237261
0.145 -0.234542
0.155 -0.231824
0.165 -0.229105
0.175 -0.226386
0.185 -0.223667
0.195 -0.220948
0.205 -0.218229
0.215 -0.215509
0.225 -0.21279
0.235 -0.21007
0.245 -0.20735
0.255 -0.20463
0.265 -0.201909
0.275 -0.199189
0.285 -0.196468
0.295 -0.193747
0.305 -0.191026
0.315 -0.188305
0.325 -0.185584
0.335 -0.182862
0.345 -0.180141
0.355 -0.177419
0.365 -0.174697
0.375 -0.171975
0.385 -0.169253
0.395 -0.166531
0.405 -0.163808
0.415 -0.161086
0.425 -0.158363
0.435 -0.15564
0.445 -0.152917
0.455 -0.150194
0.465 -0.147471
0.475 -0.144748
0.485 -0.142024
0.495 -0.139301
0.505 -0.136577
0.515 -0.133854
0.525 -0.13113
0.535 -0.128406
0.545 -0.125682
0.555 -0.122958
0.565 -0.120233
0.575 -0.117509
0.585 -0.114785
0.595 -0.11206
0.605 -0.109335
0.615 -0.106611
0.625 -0.103886
0.635 -0.101161
0.645 -0.098436
0.655 -0.095711
0.665 -0.0929858
0.675 -0.0902606
0.685 -0.0875353
0.695 -0.08481
0.705 -0.0820846
0.715 -0.079359
0.725 -0.0766335
0.735 -0.0739078
0.745 -0.0711821
0.755 -0.0684564
0.765 -0.0657305
0.775 -0.0630047
0.785 -0.0602787
0.795 -0.0575527
0.805 -0.0548267
0.815 -0.0521006
0.825 -0.0493744
0.835 -0.0466482
0.845 -0.043922
0.855 -0.0411957
0.865 -0.0384694
0.875 -0.035743
0.885 -0.0330166
0.895 -0.0302901
0.905 -0.0275637
0.915 -0.0248371
0.925 -0.0221106
0.935 -0.019384
0.945 -0.0166574
0.955 -0.0139308
0.965 -0.0112042
0.975 -0.00847749
0.985 -0.0057508
0.995 -0.00302409
