Title="tecplot dataformat3359"
Variables="x","u"
Zone I=200 F=POINT
-0.995 -0.000298509
-0.985 0.00242008
-0.975 0.00513867
-0.965 0.00785728
-0.955 0.0105759
-0.945 0.0132945
-0.935 0.0160131
-0.925 0.0187318
-0.915 0.0214504
-0.905 0.0241691
-0.895 0.0268877
-0.885 0.0296063
-0.875 0.0323249
-0.865 0.0350435
-0.855 0.0377622
-0.845 0.0404808
-0.835 0.0431993
-0.825 0.0459179
-0.815 0.0486365
-0.805 0.051355
-0.795 0.0540735
-0.785 0.056792
-0.775 0.0595105
-0.765 0.0622289
-0.755 0.0649473
-0.745 0.0676657
-0.735 0.0703841
-0.725 0.0731024
-0.715 0.0758207
-0.705 0.0785389
-0.695 0.0812572
-0.685 0.0839753
-0.675 0.0866935
-0.665 0.0894116
-0.655 0.0921296
-0.645 0.0948476
-0.635 0.0975655
-0.625 0.100283
-0.615 0.103001
-0.605 0.105719
-0.595 0.108437
-0.585 0.111154
-0.575 0.113872
-0.565 0.11659
-0.555 0.119307
-0.545 0.122025
-0.535 0.124742
-0.525 0.127459
-0.515 0.130176
-0.505 0.132894
-0.495 0.135611
-0.485 0.138328
-0.475 0.141045
-0.465 0.143761
-0.455 0.146478
-0.445 0.149195
-0.435 0.151911
-0.425 0.154628
-0.415 0.157344
-0.405 0.160061
-0.395 0.162777
-0.385 0.165493
-0.375 0.168209
-0.365 0.170925
-0.355 0.173641
-0.345 0.176356
-0.335 0.179072
-0.325 0.181787
-0.315 0.184503
-0.305 0.187218
-0.295 0.189933
-0.285 0.192648
-0.275 0.195363
-0.265 0.198078
-0.255 0.200793
-0.245 0.203507
-0.235 0.206222
-0.225 0.208936
-0.215 0.21165
-0.205 0.214364
-0.195 0.217078
-0.185 0.219792
-0.175 0.222505
-0.165 0.225219
-0.155 0.227932
-0.145 0.230646
-0.135 0.233358
-0.125 0.236072
-0.115 0.238783
-0.105 0.241499
-0.095 0.244207
-0.085 0.246926
-0.075 0.249627
-0.065 0.252357
-0.055 0.255041
-0.045 0.257797
-0.035 0.260442
-0.025 0.26326
-0.015 0.265727
-0.005 0.244406
0.005 0.0477915
0.015 -0.238057
0.025 -0.266275
0.035 -0.263647
0.045 -0.260938
0.055 -0.25823
0.065 -0.255521
0.075 -0.252812
0.085 -0.250103
0.095 -0.247394
0.105 -0.244685
0.115 -0.241975
0.125 -0.239265
0.135 -0.236555
0.145 -0.233845
0.155 -0.231135
0.165 -0.228424
0.175 -0.225713
0.185 -0.223002
0.195 -0.220291
0.205 -0.21758
0.215 -0.214869
0.225 -0.212157
0.235 -0.209445
0.245 -0.206733
0.255 -0.204021
0.265 -0.201309
0.275 -0.198596
0.285 -0.195884
0.295 -0.193171
0.305 -0.190458
0.315 -0.187745
0.325 -0.185032
0.335 -0.182319
0.345 -0.179605
0.355 -0.176891
0.365 -0.174178
0.375 -0.171464
0.385 -0.16875
0.395 -0.166035
0.405 -0.163321
0.415 -0.160607
0.425 -0.157892
0.435 -0.155177
0.445 -0.152463
0.455 -0.149748
0.465 -0.147033
0.475 -0.144318
0.485 -0.141602
0.495 -0.138887
0.505 -0.136171
0.515 -0.133456
0.525 -0.13074
0.535 -0.128024
0.545 -0.125308
0.555 -0.122592
0.565 -0.119876
0.575 -0.11716
0.585 -0.114444
0.595 -0.111727
0.605 -0.109011
0.615 -0.106294
0.625 -0.103577
0.635 -0.100861
0.645 -0.0981439
0.655 -0.095427
0.665 -0.09271
0.675 -0.0899929
0.685 -0.0872757
0.695 -0.0845585
0.705 -0.0818412
0.715 -0.0791239
0.725 -0.0764064
0.735 -0.0736889
0.745 -0.0709714
0.755 -0.0682538
0.765 -0.0655361
0.775 -0.0628183
0.785 -0.0601005
0.795 -0.0573827
0.805 -0.0546648
0.815 -0.0519468
0.825 -0.0492288
0.835 -0.0465108
0.845 -0.0437927
0.855 -0.0410745
0.865 -0.0383564
0.875 -0.0356381
0.885 -0.0329199
0.895 -0.0302016
0.905 -0.0274833
0.915 -0.0247649
0.925 -0.0220465
0.935 -0.0193281
0.945 -0.0166097
0.955 -0.0138912
0.965 -0.0111727
0.975 -0.00845417
0.985 -0.00573563
0.995 -0.00301708
