Title="tecplot dataformat538"
Variables="x","u"
Zone I=200 F=POINT
-0.995 0.00295939
-0.985 0.01463
-0.975 0.0263006
-0.965 0.0379706
-0.955 0.0496394
-0.945 0.0613064
-0.935 0.072971
-0.925 0.0846325
-0.915 0.0962904
-0.905 0.107944
-0.895 0.119593
-0.885 0.131236
-0.875 0.142873
-0.865 0.154503
-0.855 0.166126
-0.845 0.177741
-0.835 0.189348
-0.825 0.200944
-0.815 0.212531
-0.805 0.224108
-0.795 0.235672
-0.785 0.247225
-0.775 0.258765
-0.765 0.270292
-0.755 0.281805
-0.745 0.293302
-0.735 0.304784
-0.725 0.31625
-0.715 0.327698
-0.705 0.339129
-0.695 0.350541
-0.685 0.361933
-0.675 0.373305
-0.665 0.384655
-0.655 0.395984
-0.645 0.407289
-0.635 0.418571
-0.625 0.429828
-0.615 0.441058
-0.605 0.452263
-0.595 0.463439
-0.585 0.474586
-0.575 0.485704
-0.565 0.49679
-0.555 0.507844
-0.545 0.518865
-0.535 0.529851
-0.525 0.540802
-0.515 0.551715
-0.505 0.56259
-0.495 0.573425
-0.485 0.584219
-0.475 0.59497
-0.465 0.605677
-0.455 0.616338
-0.445 0.626951
-0.435 0.637515
-0.425 0.648028
-0.415 0.658488
-0.405 0.668893
-0.395 0.679241
-0.385 0.68953
-0.375 0.699757
-0.365 0.709921
-0.355 0.720019
-0.345 0.730047
-0.335 0.740004
-0.325 0.749887
-0.315 0.759692
-0.305 0.769416
-0.295 0.779057
-0.285 0.78861
-0.275 0.798071
-0.265 0.807437
-0.255 0.816703
-0.245 0.825865
-0.235 0.834918
-0.225 0.843857
-0.215 0.852676
-0.205 0.861369
-0.195 0.869929
-0.185 0.878351
-0.175 0.886626
-0.165 0.894745
-0.155 0.902702
-0.145 0.910485
-0.135 0.918086
-0.125 0.925489
-0.115 0.932688
-0.105 0.939661
-0.095 0.946403
-0.085 0.952883
-0.075 0.959098
-0.065 0.965008
-0.055 0.970609
-0.045 0.975854
-0.035 0.980715
-0.025 0.985224
-0.015 0.972164
-0.005 0.63854
0.005 -0.543071
0.015 -0.965384
0.025 -0.968904
0.035 -0.96583
0.045 -0.962173
0.055 -0.958015
0.065 -0.953408
0.075 -0.948397
0.085 -0.943017
0.095 -0.9373
0.105 -0.931272
0.115 -0.924958
0.125 -0.918379
0.135 -0.911552
0.145 -0.904495
0.155 -0.897223
0.165 -0.889748
0.175 -0.882084
0.185 -0.87424
0.195 -0.866228
0.205 -0.858056
0.215 -0.849733
0.225 -0.841267
0.235 -0.832665
0.245 -0.823933
0.255 -0.815078
0.265 -0.806106
0.275 -0.797022
0.285 -0.787831
0.295 -0.778537
0.305 -0.769146
0.315 -0.75966
0.325 -0.750085
0.335 -0.740424
0.345 -0.730681
0.355 -0.720857
0.365 -0.710958
0.375 -0.700985
0.385 -0.690942
0.395 -0.680831
0.405 -0.670655
0.415 -0.660415
0.425 -0.650115
0.435 -0.639757
0.445 -0.629342
0.455 -0.618873
0.465 -0.608352
0.475 -0.59778
0.485 -0.58716
0.495 -0.576492
0.505 -0.565779
0.515 -0.555022
0.525 -0.544223
0.535 -0.533383
0.545 -0.522503
0.555 -0.511585
0.565 -0.500631
0.575 -0.489641
0.585 -0.478617
0.595 -0.467559
0.605 -0.45647
0.615 -0.44535
0.625 -0.4342
0.635 -0.423022
0.645 -0.411816
0.655 -0.400583
0.665 -0.389325
0.675 -0.378042
0.685 -0.366735
0.695 -0.355405
0.705 -0.344053
0.715 -0.33268
0.725 -0.321287
0.735 -0.309874
0.745 -0.298443
0.755 -0.286994
0.765 -0.275528
0.775 -0.264045
0.785 -0.252547
0.795 -0.241034
0.805 -0.229507
0.815 -0.217967
0.825 -0.206414
0.835 -0.194849
0.845 -0.183272
0.855 -0.171685
0.865 -0.160088
0.875 -0.148482
0.885 -0.136867
0.895 -0.125244
0.905 -0.113613
0.915 -0.101976
0.925 -0.0903328
0.935 -0.078684
0.945 -0.0670304
0.955 -0.0553725
0.965 -0.043711
0.975 -0.0320464
0.985 -0.0203794
0.995 -0.00871063
