Title="tecplot dataformat53"
Variables="x","u"
Zone I=200 F=POINT
-0.995 0.0124643
-0.985 0.0394373
-0.975 0.0663875
-0.965 0.0932981
-0.955 0.120152
-0.945 0.146933
-0.935 0.173622
-0.925 0.200205
-0.915 0.226662
-0.905 0.252978
-0.895 0.279134
-0.885 0.305115
-0.875 0.330902
-0.865 0.356478
-0.855 0.381826
-0.845 0.406928
-0.835 0.431767
-0.825 0.456325
-0.815 0.480585
-0.805 0.504529
-0.795 0.528138
-0.785 0.551396
-0.775 0.574284
-0.765 0.596783
-0.755 0.618876
-0.745 0.640545
-0.735 0.661771
-0.725 0.682535
-0.715 0.70282
-0.705 0.722605
-0.695 0.741874
-0.685 0.760607
-0.675 0.778784
-0.665 0.796388
-0.655 0.813398
-0.645 0.829797
-0.635 0.845565
-0.625 0.860682
-0.615 0.87513
-0.605 0.88889
-0.595 0.901941
-0.585 0.914266
-0.575 0.925844
-0.565 0.936657
-0.555 0.946685
-0.545 0.955911
-0.535 0.964314
-0.525 0.971877
-0.515 0.978581
-0.505 0.984407
-0.495 0.989338
-0.485 0.993355
-0.475 0.996443
-0.465 0.998583
-0.455 0.999759
-0.445 0.999955
-0.435 0.999156
-0.425 0.997347
-0.415 0.994513
-0.405 0.990642
-0.395 0.98572
-0.385 0.979736
-0.375 0.97268
-0.365 0.964541
-0.355 0.955312
-0.345 0.944984
-0.335 0.933553
-0.325 0.921013
-0.315 0.907362
-0.305 0.892599
-0.295 0.876724
-0.285 0.859739
-0.275 0.84165
-0.265 0.822461
-0.255 0.802183
-0.245 0.780824
-0.235 0.7584
-0.225 0.734925
-0.215 0.710418
-0.205 0.684899
-0.195 0.658391
-0.185 0.63092
-0.175 0.602516
-0.165 0.573209
-0.155 0.543034
-0.145 0.512027
-0.135 0.480228
-0.125 0.447679
-0.115 0.414426
-0.105 0.380514
-0.095 0.345995
-0.085 0.310919
-0.075 0.27534
-0.065 0.239315
-0.055 0.2029
-0.045 0.166155
-0.035 0.129139
-0.025 0.0919154
-0.015 0.0545446
-0.005 0.0170899
0.005 -0.020386
0.015 -0.0578199
0.025 -0.0951491
0.035 -0.132311
0.045 -0.169245
0.055 -0.20589
0.065 -0.242186
0.075 -0.278076
0.085 -0.313503
0.095 -0.348413
0.105 -0.382754
0.115 -0.416475
0.125 -0.449528
0.135 -0.481867
0.145 -0.51345
0.155 -0.544236
0.165 -0.574186
0.175 -0.603266
0.185 -0.631443
0.195 -0.658687
0.205 -0.68497
0.215 -0.710269
0.225 -0.734561
0.235 -0.757826
0.245 -0.780048
0.255 -0.801211
0.265 -0.821304
0.275 -0.840317
0.285 -0.858241
0.295 -0.875071
0.305 -0.890802
0.315 -0.905434
0.325 -0.918965
0.335 -0.931396
0.345 -0.942732
0.355 -0.952976
0.365 -0.962135
0.375 -0.970214
0.385 -0.977224
0.395 -0.983172
0.405 -0.98807
0.415 -0.991928
0.425 -0.99476
0.435 -0.996578
0.445 -0.997396
0.455 -0.997228
0.465 -0.99609
0.475 -0.993996
0.485 -0.990963
0.495 -0.987008
0.505 -0.982147
0.515 -0.976398
0.525 -0.969778
0.535 -0.962304
0.545 -0.953995
0.555 -0.944869
0.565 -0.934944
0.575 -0.924239
0.585 -0.912772
0.595 -0.900562
0.605 -0.887628
0.615 -0.873988
0.625 -0.859661
0.635 -0.844667
0.645 -0.829023
0.655 -0.812748
0.665 -0.795862
0.675 -0.778383
0.685 -0.76033
0.695 -0.74172
0.705 -0.722574
0.715 -0.702909
0.725 -0.682744
0.735 -0.662097
0.745 -0.640986
0.755 -0.61943
0.765 -0.597447
0.775 -0.575054
0.785 -0.55227
0.795 -0.529113
0.805 -0.5056
0.815 -0.48175
0.825 -0.457579
0.835 -0.433106
0.845 -0.408348
0.855 -0.383322
0.865 -0.358046
0.875 -0.332537
0.885 -0.306813
0.895 -0.28089
0.905 -0.254787
0.915 -0.228519
0.925 -0.202104
0.935 -0.175559
0.945 -0.148902
0.955 -0.122148
0.965 -0.0953156
0.975 -0.0684213
0.985 -0.0414818
0.995 -0.0145143
