Title="tecplot dataformat630"
Variables="x","u"
Zone I=200 F=POINT
-0.995 0.00240467
-0.985 0.0129427
-0.975 0.0234808
-0.965 0.0340187
-0.955 0.0445558
-0.945 0.0550918
-0.935 0.0656263
-0.925 0.0761588
-0.915 0.0866891
-0.905 0.0972166
-0.895 0.107741
-0.885 0.118262
-0.875 0.128779
-0.865 0.139291
-0.855 0.149799
-0.845 0.160301
-0.835 0.170798
-0.825 0.181288
-0.815 0.191772
-0.805 0.20225
-0.795 0.212719
-0.785 0.223181
-0.775 0.233635
-0.765 0.24408
-0.755 0.254515
-0.745 0.264941
-0.735 0.275357
-0.725 0.285762
-0.715 0.296155
-0.705 0.306537
-0.695 0.316907
-0.685 0.327265
-0.675 0.337609
-0.665 0.347939
-0.655 0.358255
-0.645 0.368556
-0.635 0.378841
-0.625 0.389111
-0.615 0.399363
-0.605 0.409599
-0.595 0.419816
-0.585 0.430015
-0.575 0.440195
-0.565 0.450355
-0.555 0.460495
-0.545 0.470613
-0.535 0.480709
-0.525 0.490782
-0.515 0.500832
-0.505 0.510857
-0.495 0.520858
-0.485 0.530832
-0.475 0.540779
-0.465 0.550698
-0.455 0.560589
-0.445 0.57045
-0.435 0.580281
-0.425 0.590079
-0.415 0.599845
-0.405 0.609577
-0.395 0.619274
-0.385 0.628934
-0.375 0.638557
-0.365 0.648141
-0.355 0.657685
-0.345 0.667188
-0.335 0.676647
-0.325 0.686062
-0.315 0.69543
-0.305 0.704751
-0.295 0.714022
-0.285 0.723242
-0.275 0.732408
-0.265 0.741519
-0.255 0.750572
-0.245 0.759565
-0.235 0.768496
-0.225 0.777363
-0.215 0.786162
-0.205 0.79489
-0.195 0.803546
-0.185 0.812125
-0.175 0.820625
-0.165 0.829042
-0.155 0.83737
-0.145 0.84561
-0.135 0.853749
-0.125 0.861798
-0.115 0.869721
-0.105 0.877574
-0.095 0.885233
-0.085 0.892912
-0.075 0.900216
-0.065 0.907805
-0.055 0.91459
-0.045 0.922334
-0.035 0.928362
-0.025 0.937737
-0.015 0.931775
-0.005 0.658271
0.005 -0.436426
0.015 -0.924098
0.025 -0.926925
0.035 -0.92093
0.045 -0.914703
0.055 -0.908268
0.065 -0.90164
0.075 -0.894831
0.085 -0.887855
0.095 -0.88072
0.105 -0.873437
0.115 -0.866014
0.125 -0.85846
0.135 -0.85078
0.145 -0.842983
0.155 -0.835073
0.165 -0.827057
0.175 -0.818939
0.185 -0.810725
0.195 -0.802419
0.205 -0.794024
0.215 -0.785546
0.225 -0.776988
0.235 -0.768352
0.245 -0.759643
0.255 -0.750863
0.265 -0.742015
0.275 -0.733102
0.285 -0.724127
0.295 -0.715091
0.305 -0.705997
0.315 -0.696847
0.325 -0.687643
0.335 -0.678388
0.345 -0.669082
0.355 -0.659729
0.365 -0.650329
0.375 -0.640884
0.385 -0.631395
0.395 -0.621865
0.405 -0.612294
0.415 -0.602684
0.425 -0.593036
0.435 -0.583352
0.445 -0.573632
0.455 -0.563879
0.465 -0.554092
0.475 -0.544273
0.485 -0.534423
0.495 -0.524543
0.505 -0.514634
0.515 -0.504697
0.525 -0.494733
0.535 -0.484743
0.545 -0.474728
0.555 -0.464687
0.565 -0.454623
0.575 -0.444536
0.585 -0.434427
0.595 -0.424296
0.605 -0.414145
0.615 -0.403973
0.625 -0.393782
0.635 -0.383572
0.645 -0.373344
0.655 -0.363098
0.665 -0.352836
0.675 -0.342557
0.685 -0.332263
0.695 -0.321954
0.705 -0.31163
0.715 -0.301292
0.725 -0.29094
0.735 -0.280576
0.745 -0.270199
0.755 -0.259811
0.765 -0.249411
0.775 -0.239
0.785 -0.228578
0.795 -0.218147
0.805 -0.207707
0.815 -0.197257
0.825 -0.186799
0.835 -0.176333
0.845 -0.165859
0.855 -0.155378
0.865 -0.144891
0.875 -0.134397
0.885 -0.123897
0.895 -0.113392
0.905 -0.102881
0.915 -0.0923667
0.925 -0.0818477
0.935 -0.071325
0.945 -0.0607989
0.955 -0.05027
0.965 -0.0397385
0.975 -0.0292048
0.985 -0.0186695
0.995 -0.00813286
