Title="tecplot dataformat659"
Variables="x","u"
Zone I=200 F=POINT
-0.995 0.00225667
-0.985 0.012482
-0.975 0.0227074
-0.965 0.0329325
-0.955 0.0431571
-0.945 0.0533807
-0.935 0.0636029
-0.925 0.0738235
-0.915 0.0840421
-0.905 0.0942582
-0.895 0.104472
-0.885 0.114682
-0.875 0.124889
-0.865 0.135092
-0.855 0.14529
-0.845 0.155484
-0.835 0.165673
-0.825 0.175857
-0.815 0.186035
-0.805 0.196207
-0.795 0.206372
-0.785 0.216531
-0.775 0.226682
-0.765 0.236825
-0.755 0.24696
-0.745 0.257087
-0.735 0.267204
-0.725 0.277312
-0.715 0.287411
-0.705 0.297499
-0.695 0.307576
-0.685 0.317642
-0.675 0.327697
-0.665 0.337739
-0.655 0.347769
-0.645 0.357785
-0.635 0.367788
-0.625 0.377777
-0.615 0.387752
-0.605 0.397711
-0.595 0.407654
-0.585 0.417581
-0.575 0.427491
-0.565 0.437384
-0.555 0.447259
-0.545 0.457115
-0.535 0.466952
-0.525 0.476769
-0.515 0.486565
-0.505 0.49634
-0.495 0.506093
-0.485 0.515823
-0.475 0.52553
-0.465 0.535212
-0.455 0.54487
-0.445 0.554501
-0.435 0.564106
-0.425 0.573683
-0.415 0.583232
-0.405 0.592751
-0.395 0.60224
-0.385 0.611697
-0.375 0.621122
-0.365 0.630513
-0.355 0.63987
-0.345 0.64919
-0.335 0.658474
-0.325 0.667719
-0.315 0.676924
-0.305 0.686088
-0.295 0.69521
-0.285 0.704287
-0.275 0.713319
-0.265 0.722303
-0.255 0.731238
-0.245 0.740122
-0.235 0.748953
-0.225 0.75773
-0.215 0.766449
-0.205 0.775109
-0.195 0.783706
-0.185 0.79224
-0.175 0.800706
-0.165 0.809104
-0.155 0.817426
-0.145 0.825678
-0.135 0.833838
-0.125 0.841937
-0.115 0.849911
-0.105 0.857859
-0.095 0.865603
-0.085 0.873424
-0.075 0.880858
-0.065 0.888644
-0.055 0.89561
-0.045 0.903635
-0.035 0.909903
-0.025 0.919843
-0.015 0.915458
-0.005 0.657355
0.005 -0.407199
0.015 -0.907098
0.025 -0.910376
0.035 -0.903965
0.045 -0.897371
0.055 -0.890614
0.065 -0.883702
0.075 -0.876645
0.085 -0.869453
0.095 -0.862132
0.105 -0.85469
0.115 -0.847134
0.125 -0.839469
0.135 -0.831701
0.145 -0.823835
0.155 -0.815876
0.165 -0.807828
0.175 -0.799695
0.185 -0.791481
0.195 -0.78319
0.205 -0.774824
0.215 -0.766388
0.225 -0.757884
0.235 -0.749314
0.245 -0.740681
0.255 -0.731989
0.265 -0.723238
0.275 -0.714432
0.285 -0.705572
0.295 -0.69666
0.305 -0.687698
0.315 -0.678688
0.325 -0.669632
0.335 -0.660532
0.345 -0.651388
0.355 -0.642202
0.365 -0.632976
0.375 -0.623711
0.385 -0.614409
0.395 -0.60507
0.405 -0.595696
0.415 -0.586288
0.425 -0.576847
0.435 -0.567374
0.445 -0.557871
0.455 -0.548337
0.465 -0.538775
0.475 -0.529184
0.485 -0.519567
0.495 -0.509923
0.505 -0.500254
0.515 -0.49056
0.525 -0.480843
0.535 -0.471102
0.545 -0.461339
0.555 -0.451554
0.565 -0.441749
0.575 -0.431923
0.585 -0.422078
0.595 -0.412214
0.605 -0.402331
0.615 -0.392431
0.625 -0.382513
0.635 -0.372579
0.645 -0.362629
0.655 -0.352663
0.665 -0.342683
0.675 -0.332688
0.685 -0.322679
0.695 -0.312657
0.705 -0.302623
0.715 -0.292575
0.725 -0.282516
0.735 -0.272445
0.745 -0.262364
0.755 -0.252271
0.765 -0.242169
0.775 -0.232057
0.785 -0.221936
0.795 -0.211806
0.805 -0.201668
0.815 -0.191521
0.825 -0.181367
0.835 -0.171206
0.845 -0.161038
0.855 -0.150864
0.865 -0.140684
0.875 -0.130498
0.885 -0.120307
0.895 -0.110111
0.905 -0.0999111
0.915 -0.0897067
0.925 -0.0794986
0.935 -0.0692871
0.945 -0.0590727
0.955 -0.0488556
0.965 -0.0386362
0.975 -0.0284149
0.985 -0.0181921
0.995 -0.00796814
