Title="tecplot dataformat608"
Variables="x","u"
Zone I=200 F=POINT
-0.995 0.0025248
-0.985 0.0133132
-0.975 0.0241016
-0.965 0.0348897
-0.955 0.045677
-0.945 0.0564631
-0.935 0.0672474
-0.925 0.0780296
-0.915 0.0888093
-0.905 0.0995859
-0.895 0.110359
-0.885 0.121128
-0.875 0.131893
-0.865 0.142653
-0.855 0.153408
-0.845 0.164156
-0.835 0.174899
-0.825 0.185635
-0.815 0.196364
-0.805 0.207085
-0.795 0.217797
-0.785 0.228502
-0.775 0.239197
-0.765 0.249882
-0.755 0.260557
-0.745 0.271221
-0.735 0.281875
-0.725 0.292516
-0.715 0.303145
-0.705 0.313761
-0.695 0.324364
-0.685 0.334953
-0.675 0.345527
-0.665 0.356085
-0.655 0.366628
-0.645 0.377155
-0.635 0.387664
-0.625 0.398156
-0.615 0.408629
-0.605 0.419083
-0.595 0.429518
-0.585 0.439931
-0.575 0.450324
-0.565 0.460695
-0.555 0.471042
-0.545 0.481366
-0.535 0.491666
-0.525 0.50194
-0.515 0.512189
-0.505 0.52241
-0.495 0.532603
-0.485 0.542768
-0.475 0.552902
-0.465 0.563005
-0.455 0.573077
-0.445 0.583115
-0.435 0.59312
-0.425 0.603088
-0.415 0.613021
-0.405 0.622915
-0.395 0.63277
-0.385 0.642584
-0.375 0.652357
-0.365 0.662086
-0.355 0.67177
-0.345 0.681407
-0.335 0.690997
-0.325 0.700535
-0.315 0.710022
-0.305 0.719455
-0.295 0.728833
-0.285 0.738152
-0.275 0.74741
-0.265 0.756606
-0.255 0.765737
-0.245 0.7748
-0.235 0.783792
-0.225 0.79271
-0.215 0.801552
-0.205 0.810314
-0.195 0.818992
-0.185 0.827583
-0.175 0.836082
-0.165 0.844486
-0.155 0.852789
-0.145 0.860988
-0.135 0.869074
-0.125 0.877048
-0.115 0.884891
-0.105 0.892622
-0.095 0.900181
-0.085 0.907668
-0.075 0.914861
-0.065 0.922165
-0.055 0.928813
-0.045 0.936177
-0.035 0.941985
-0.025 0.95049
-0.015 0.943249
-0.005 0.657407
0.005 -0.459692
0.015 -0.936188
0.025 -0.938806
0.035 -0.933243
0.045 -0.927397
0.055 -0.921301
0.065 -0.914973
0.075 -0.908429
0.085 -0.901686
0.095 -0.894756
0.105 -0.887652
0.115 -0.880383
0.125 -0.872961
0.135 -0.865393
0.145 -0.857688
0.155 -0.849853
0.165 -0.841895
0.175 -0.83382
0.185 -0.825635
0.195 -0.817344
0.205 -0.808952
0.215 -0.800465
0.225 -0.791886
0.235 -0.783219
0.245 -0.774469
0.255 -0.765638
0.265 -0.756731
0.275 -0.747749
0.285 -0.738697
0.295 -0.729577
0.305 -0.720392
0.315 -0.711144
0.325 -0.701835
0.335 -0.692468
0.345 -0.683045
0.355 -0.673568
0.365 -0.664039
0.375 -0.65446
0.385 -0.644832
0.395 -0.635157
0.405 -0.625438
0.415 -0.615674
0.425 -0.605869
0.435 -0.596023
0.445 -0.586137
0.455 -0.576214
0.465 -0.566254
0.475 -0.556258
0.485 -0.546228
0.495 -0.536164
0.505 -0.526069
0.515 -0.515942
0.525 -0.505786
0.535 -0.4956
0.545 -0.485386
0.555 -0.475145
0.565 -0.464878
0.575 -0.454586
0.585 -0.444268
0.595 -0.433927
0.605 -0.423563
0.615 -0.413177
0.625 -0.40277
0.635 -0.392342
0.645 -0.381893
0.655 -0.371426
0.665 -0.36094
0.675 -0.350436
0.685 -0.339915
0.695 -0.329377
0.705 -0.318823
0.715 -0.308254
0.725 -0.29767
0.735 -0.287072
0.745 -0.27646
0.755 -0.265835
0.765 -0.255198
0.775 -0.244549
0.785 -0.233888
0.795 -0.223217
0.805 -0.212535
0.815 -0.201843
0.825 -0.191142
0.835 -0.180432
0.845 -0.169714
0.855 -0.158988
0.865 -0.148255
0.875 -0.137514
0.885 -0.126768
0.895 -0.116015
0.905 -0.105257
0.915 -0.0944938
0.925 -0.0837261
0.935 -0.0729544
0.945 -0.062179
0.955 -0.0514004
0.965 -0.040619
0.975 -0.0298354
0.985 -0.0190499
0.995 -0.00826305
