Title="tecplot dataformat611"
Variables="x","u"
Zone I=200 F=POINT
-0.995 0.002508
-0.985 0.0132615
-0.975 0.0240152
-0.965 0.0347684
-0.955 0.0455209
-0.945 0.0562722
-0.935 0.0670217
-0.925 0.0777692
-0.915 0.0885141
-0.905 0.0992561
-0.895 0.109995
-0.885 0.120729
-0.875 0.13146
-0.865 0.142185
-0.855 0.152905
-0.845 0.16362
-0.835 0.174328
-0.825 0.18503
-0.815 0.195725
-0.805 0.206412
-0.795 0.217091
-0.785 0.227761
-0.775 0.238423
-0.765 0.249075
-0.755 0.259717
-0.745 0.270348
-0.735 0.280968
-0.725 0.291577
-0.715 0.302173
-0.705 0.312757
-0.695 0.323327
-0.685 0.333884
-0.675 0.344426
-0.665 0.354953
-0.655 0.365464
-0.645 0.375959
-0.635 0.386438
-0.625 0.396899
-0.615 0.407341
-0.605 0.417765
-0.595 0.42817
-0.585 0.438554
-0.575 0.448917
-0.565 0.459258
-0.555 0.469577
-0.545 0.479873
-0.535 0.490144
-0.525 0.500391
-0.515 0.510612
-0.505 0.520806
-0.495 0.530973
-0.485 0.541111
-0.475 0.55122
-0.465 0.561298
-0.455 0.571344
-0.445 0.581359
-0.435 0.591339
-0.425 0.601284
-0.415 0.611194
-0.405 0.621066
-0.395 0.6309
-0.385 0.640693
-0.375 0.650445
-0.365 0.660155
-0.355 0.66982
-0.345 0.679439
-0.335 0.689011
-0.325 0.698533
-0.315 0.708004
-0.305 0.717422
-0.295 0.726785
-0.285 0.736091
-0.275 0.745338
-0.265 0.754523
-0.255 0.763644
-0.245 0.772698
-0.235 0.781683
-0.225 0.790595
-0.215 0.799432
-0.205 0.808191
-0.195 0.816867
-0.185 0.825458
-0.175 0.833958
-0.165 0.842366
-0.155 0.850674
-0.145 0.85888
-0.135 0.866976
-0.125 0.874962
-0.115 0.882818
-0.105 0.890569
-0.095 0.898144
-0.085 0.905661
-0.075 0.912871
-0.065 0.920223
-0.055 0.926885
-0.045 0.934319
-0.035 0.940153
-0.025 0.948803
-0.015 0.941736
-0.005 0.657613
0.005 -0.456452
0.015 -0.934592
0.025 -0.93723
0.035 -0.931601
0.045 -0.925698
0.055 -0.919549
0.065 -0.913175
0.075 -0.906591
0.085 -0.899812
0.095 -0.89285
0.105 -0.885718
0.115 -0.878425
0.125 -0.870982
0.135 -0.863396
0.145 -0.855676
0.155 -0.847829
0.165 -0.839861
0.175 -0.831779
0.185 -0.823588
0.195 -0.815293
0.205 -0.8069
0.215 -0.798412
0.225 -0.789835
0.235 -0.781171
0.245 -0.772425
0.255 -0.763601
0.265 -0.7547
0.275 -0.745728
0.285 -0.736685
0.295 -0.727576
0.305 -0.718403
0.315 -0.709167
0.325 -0.699873
0.335 -0.69052
0.345 -0.681113
0.355 -0.671653
0.365 -0.662141
0.375 -0.65258
0.385 -0.642971
0.395 -0.633316
0.405 -0.623616
0.415 -0.613874
0.425 -0.60409
0.435 -0.594266
0.445 -0.584403
0.455 -0.574503
0.465 -0.564567
0.475 -0.554595
0.485 -0.54459
0.495 -0.534552
0.505 -0.524482
0.515 -0.514382
0.525 -0.504251
0.535 -0.494093
0.545 -0.483906
0.555 -0.473693
0.565 -0.463454
0.575 -0.45319
0.585 -0.442901
0.595 -0.432589
0.605 -0.422255
0.615 -0.411898
0.625 -0.401521
0.635 -0.391123
0.645 -0.380705
0.655 -0.370268
0.665 -0.359813
0.675 -0.349341
0.685 -0.338851
0.695 -0.328345
0.705 -0.317823
0.715 -0.307286
0.725 -0.296734
0.735 -0.286169
0.745 -0.275589
0.755 -0.264997
0.765 -0.254393
0.775 -0.243777
0.785 -0.23315
0.795 -0.222512
0.805 -0.211863
0.815 -0.201205
0.825 -0.190538
0.835 -0.179862
0.845 -0.169178
0.855 -0.158486
0.865 -0.147787
0.875 -0.137081
0.885 -0.126368
0.895 -0.11565
0.905 -0.104926
0.915 -0.0941979
0.925 -0.0834648
0.935 -0.0727277
0.945 -0.061987
0.955 -0.0512432
0.965 -0.0404966
0.975 -0.0297478
0.985 -0.0189971
0.995 -0.00824502
