Title="tecplot dataformat88"
Variables="x","u"
Zone I=200 F=POINT
-0.995 0.0108271
-0.985 0.0354643
-0.975 0.0600868
-0.965 0.0846829
-0.955 0.109241
-0.945 0.133748
-0.935 0.158194
-0.925 0.182566
-0.915 0.206851
-0.905 0.231039
-0.895 0.255116
-0.885 0.27907
-0.875 0.30289
-0.865 0.326562
-0.855 0.350074
-0.845 0.373414
-0.835 0.396569
-0.825 0.419525
-0.815 0.44227
-0.805 0.464791
-0.795 0.487073
-0.785 0.509105
-0.775 0.53087
-0.765 0.552357
-0.755 0.573551
-0.745 0.594436
-0.735 0.615
-0.725 0.635227
-0.715 0.655101
-0.705 0.674608
-0.695 0.693732
-0.685 0.712457
-0.675 0.730767
-0.665 0.748645
-0.655 0.766075
-0.645 0.78304
-0.635 0.799522
-0.625 0.815503
-0.615 0.830966
-0.605 0.845892
-0.595 0.860262
-0.585 0.874056
-0.575 0.887256
-0.565 0.89984
-0.555 0.91179
-0.545 0.923083
-0.535 0.9337
-0.525 0.943617
-0.515 0.952813
-0.505 0.961266
-0.495 0.968952
-0.485 0.975848
-0.475 0.981932
-0.465 0.987178
-0.455 0.991562
-0.445 0.995059
-0.435 0.997645
-0.425 0.999294
-0.415 0.99998
-0.405 0.999678
-0.395 0.998362
-0.385 0.996006
-0.375 0.992584
-0.365 0.98807
-0.355 0.982438
-0.345 0.975663
-0.335 0.967721
-0.325 0.958587
-0.315 0.948237
-0.305 0.936649
-0.295 0.923802
-0.285 0.909675
-0.275 0.894251
-0.265 0.877511
-0.255 0.859443
-0.245 0.840034
-0.235 0.819276
-0.225 0.797161
-0.215 0.773689
-0.205 0.74886
-0.195 0.72268
-0.185 0.695161
-0.175 0.666317
-0.165 0.63617
-0.155 0.604746
-0.145 0.572079
-0.135 0.538208
-0.125 0.503179
-0.115 0.467045
-0.105 0.429865
-0.095 0.391705
-0.085 0.35264
-0.075 0.312747
-0.065 0.272113
-0.055 0.230828
-0.045 0.18899
-0.035 0.146697
-0.025 0.104055
-0.015 0.0611706
-0.005 0.0181522
0.005 -0.0248904
0.015 -0.0678474
0.025 -0.11061
0.035 -0.153072
0.045 -0.195128
0.055 -0.236679
0.065 -0.277629
0.075 -0.317886
0.085 -0.357364
0.095 -0.395985
0.105 -0.433674
0.115 -0.470364
0.125 -0.505996
0.135 -0.540514
0.145 -0.573873
0.155 -0.606031
0.165 -0.636953
0.175 -0.66661
0.185 -0.694979
0.195 -0.722042
0.205 -0.747787
0.215 -0.772204
0.225 -0.795291
0.235 -0.817046
0.245 -0.837473
0.255 -0.856578
0.265 -0.874371
0.275 -0.890864
0.285 -0.90607
0.295 -0.920006
0.305 -0.93269
0.315 -0.944141
0.325 -0.95438
0.335 -0.963427
0.345 -0.971306
0.355 -0.97804
0.365 -0.983652
0.375 -0.988166
0.385 -0.991607
0.395 -0.994
0.405 -0.99537
0.415 -0.99574
0.425 -0.995136
0.435 -0.993583
0.445 -0.991104
0.455 -0.987725
0.465 -0.983469
0.475 -0.978361
0.485 -0.972423
0.495 -0.965679
0.505 -0.958151
0.515 -0.949863
0.525 -0.940836
0.535 -0.931092
0.545 -0.920653
0.555 -0.909538
0.565 -0.89777
0.575 -0.885368
0.585 -0.872353
0.595 -0.858743
0.605 -0.844557
0.615 -0.829816
0.625 -0.814536
0.635 -0.798736
0.645 -0.782434
0.655 -0.765648
0.665 -0.748394
0.675 -0.730688
0.685 -0.712549
0.695 -0.693991
0.705 -0.675031
0.715 -0.655684
0.725 -0.635966
0.735 -0.615891
0.745 -0.595475
0.755 -0.574733
0.765 -0.553678
0.775 -0.532325
0.785 -0.510688
0.795 -0.488781
0.805 -0.466617
0.815 -0.44421
0.825 -0.421573
0.835 -0.398719
0.845 -0.375661
0.855 -0.352412
0.865 -0.328985
0.875 -0.305393
0.885 -0.281647
0.895 -0.25776
0.905 -0.233745
0.915 -0.209613
0.925 -0.185377
0.935 -0.161049
0.945 -0.136641
0.955 -0.112164
0.965 -0.0876311
0.975 -0.0630537
0.985 -0.0384436
0.995 -0.0138128
